PSF EXT

      51 !NTITLE
 REMARKS original generated structure x-plor psf file
 REMARKS 32 patches were applied to the molecule.
 REMARKS topology ../PE_modify.str 
 REMARKS segment P1 { first HYD1; last HYD2; auto none  }
 REMARKS segment P2 { first HYD1; last HYD2; auto none  }
 REMARKS segment P3 { first HYD1; last HYD2; auto none  }
 REMARKS segment P4 { first HYD1; last HYD2; auto none  }
 REMARKS segment P5 { first HYD1; last HYD2; auto none  }
 REMARKS segment P6 { first HYD1; last HYD2; auto none  }
 REMARKS segment P7 { first HYD1; last HYD2; auto none  }
 REMARKS segment P8 { first HYD1; last HYD2; auto none  }
 REMARKS segment P9 { first HYD1; last HYD2; auto none  }
 REMARKS segment P10 { first HYD1; last HYD2; auto none  }
 REMARKS segment P11 { first HYD1; last HYD2; auto none  }
 REMARKS segment P12 { first HYD1; last HYD2; auto none  }
 REMARKS segment P13 { first HYD1; last HYD2; auto none  }
 REMARKS segment P14 { first HYD1; last HYD2; auto none  }
 REMARKS segment P15 { first HYD1; last HYD2; auto none  }
 REMARKS segment P16 { first HYD1; last HYD2; auto none  }
 REMARKS defaultpatch HYD2 P1:60  
 REMARKS defaultpatch HYD1 P1:1  
 REMARKS defaultpatch HYD2 P2:60  
 REMARKS defaultpatch HYD1 P2:1  
 REMARKS defaultpatch HYD2 P3:60  
 REMARKS defaultpatch HYD1 P3:1  
 REMARKS defaultpatch HYD2 P4:60  
 REMARKS defaultpatch HYD1 P4:1  
 REMARKS defaultpatch HYD2 P5:60  
 REMARKS defaultpatch HYD1 P5:1  
 REMARKS defaultpatch HYD2 P6:60  
 REMARKS defaultpatch HYD1 P6:1  
 REMARKS defaultpatch HYD2 P7:60  
 REMARKS defaultpatch HYD1 P7:1  
 REMARKS defaultpatch HYD2 P8:60  
 REMARKS defaultpatch HYD1 P8:1  
 REMARKS defaultpatch HYD2 P9:60  
 REMARKS defaultpatch HYD1 P9:1  
 REMARKS defaultpatch HYD2 P10:60  
 REMARKS defaultpatch HYD1 P10:1  
 REMARKS defaultpatch HYD2 P11:60  
 REMARKS defaultpatch HYD1 P11:1  
 REMARKS defaultpatch HYD2 P12:60  
 REMARKS defaultpatch HYD1 P12:1  
 REMARKS defaultpatch HYD2 P13:60  
 REMARKS defaultpatch HYD1 P13:1  
 REMARKS defaultpatch HYD2 P14:60  
 REMARKS defaultpatch HYD1 P14:1  
 REMARKS defaultpatch HYD2 P15:60  
 REMARKS defaultpatch HYD1 P15:1  
 REMARKS defaultpatch HYD2 P16:60  
 REMARKS defaultpatch HYD1 P16:1  

    5792 !NATOM
         1 P1       1        ETHY     C1       CG331   -0.270000       12.0110           0
         2 P1       1        ETHY     H11      HGA3     0.090000        1.0080           0
         3 P1       1        ETHY     H12      HGA3     0.090000        1.0080           0
         4 P1       1        ETHY     H13      HGA3     0.090000        1.0080           0
         5 P1       1        ETHY     C2       CG321   -0.180000       12.0110           0
         6 P1       1        ETHY     H21      HGA2     0.090000        1.0080           0
         7 P1       1        ETHY     H23      HGA2     0.090000        1.0080           0
         8 P1       2        ETHY     C1       CG321   -0.180000       12.0110           0
         9 P1       2        ETHY     H11      HGA2     0.090000        1.0080           0
        10 P1       2        ETHY     H13      HGA2     0.090000        1.0080           0
        11 P1       2        ETHY     C2       CG321   -0.180000       12.0110           0
        12 P1       2        ETHY     H21      HGA2     0.090000        1.0080           0
        13 P1       2        ETHY     H23      HGA2     0.090000        1.0080           0
        14 P1       3        ETHY     C1       CG321   -0.180000       12.0110           0
        15 P1       3        ETHY     H11      HGA2     0.090000        1.0080           0
        16 P1       3        ETHY     H13      HGA2     0.090000        1.0080           0
        17 P1       3        ETHY     C2       CG321   -0.180000       12.0110           0
        18 P1       3        ETHY     H21      HGA2     0.090000        1.0080           0
        19 P1       3        ETHY     H23      HGA2     0.090000        1.0080           0
        20 P1       4        ETHY     C1       CG321   -0.180000       12.0110           0
        21 P1       4        ETHY     H11      HGA2     0.090000        1.0080           0
        22 P1       4        ETHY     H13      HGA2     0.090000        1.0080           0
        23 P1       4        ETHY     C2       CG321   -0.180000       12.0110           0
        24 P1       4        ETHY     H21      HGA2     0.090000        1.0080           0
        25 P1       4        ETHY     H23      HGA2     0.090000        1.0080           0
        26 P1       5        ETHY     C1       CG321   -0.180000       12.0110           0
        27 P1       5        ETHY     H11      HGA2     0.090000        1.0080           0
        28 P1       5        ETHY     H13      HGA2     0.090000        1.0080           0
        29 P1       5        ETHY     C2       CG321   -0.180000       12.0110           0
        30 P1       5        ETHY     H21      HGA2     0.090000        1.0080           0
        31 P1       5        ETHY     H23      HGA2     0.090000        1.0080           0
        32 P1       6        ETHY     C1       CG321   -0.180000       12.0110           0
        33 P1       6        ETHY     H11      HGA2     0.090000        1.0080           0
        34 P1       6        ETHY     H13      HGA2     0.090000        1.0080           0
        35 P1       6        ETHY     C2       CG321   -0.180000       12.0110           0
        36 P1       6        ETHY     H21      HGA2     0.090000        1.0080           0
        37 P1       6        ETHY     H23      HGA2     0.090000        1.0080           0
        38 P1       7        ETHY     C1       CG321   -0.180000       12.0110           0
        39 P1       7        ETHY     H11      HGA2     0.090000        1.0080           0
        40 P1       7        ETHY     H13      HGA2     0.090000        1.0080           0
        41 P1       7        ETHY     C2       CG321   -0.180000       12.0110           0
        42 P1       7        ETHY     H21      HGA2     0.090000        1.0080           0
        43 P1       7        ETHY     H23      HGA2     0.090000        1.0080           0
        44 P1       8        ETHY     C1       CG321   -0.180000       12.0110           0
        45 P1       8        ETHY     H11      HGA2     0.090000        1.0080           0
        46 P1       8        ETHY     H13      HGA2     0.090000        1.0080           0
        47 P1       8        ETHY     C2       CG321   -0.180000       12.0110           0
        48 P1       8        ETHY     H21      HGA2     0.090000        1.0080           0
        49 P1       8        ETHY     H23      HGA2     0.090000        1.0080           0
        50 P1       9        ETHY     C1       CG321   -0.180000       12.0110           0
        51 P1       9        ETHY     H11      HGA2     0.090000        1.0080           0
        52 P1       9        ETHY     H13      HGA2     0.090000        1.0080           0
        53 P1       9        ETHY     C2       CG321   -0.180000       12.0110           0
        54 P1       9        ETHY     H21      HGA2     0.090000        1.0080           0
        55 P1       9        ETHY     H23      HGA2     0.090000        1.0080           0
        56 P1       10       ETHY     C1       CG321   -0.180000       12.0110           0
        57 P1       10       ETHY     H11      HGA2     0.090000        1.0080           0
        58 P1       10       ETHY     H13      HGA2     0.090000        1.0080           0
        59 P1       10       ETHY     C2       CG321   -0.180000       12.0110           0
        60 P1       10       ETHY     H21      HGA2     0.090000        1.0080           0
        61 P1       10       ETHY     H23      HGA2     0.090000        1.0080           0
        62 P1       11       ETHY     C1       CG321   -0.180000       12.0110           0
        63 P1       11       ETHY     H11      HGA2     0.090000        1.0080           0
        64 P1       11       ETHY     H13      HGA2     0.090000        1.0080           0
        65 P1       11       ETHY     C2       CG321   -0.180000       12.0110           0
        66 P1       11       ETHY     H21      HGA2     0.090000        1.0080           0
        67 P1       11       ETHY     H23      HGA2     0.090000        1.0080           0
        68 P1       12       ETHY     C1       CG321   -0.180000       12.0110           0
        69 P1       12       ETHY     H11      HGA2     0.090000        1.0080           0
        70 P1       12       ETHY     H13      HGA2     0.090000        1.0080           0
        71 P1       12       ETHY     C2       CG321   -0.180000       12.0110           0
        72 P1       12       ETHY     H21      HGA2     0.090000        1.0080           0
        73 P1       12       ETHY     H23      HGA2     0.090000        1.0080           0
        74 P1       13       ETHY     C1       CG321   -0.180000       12.0110           0
        75 P1       13       ETHY     H11      HGA2     0.090000        1.0080           0
        76 P1       13       ETHY     H13      HGA2     0.090000        1.0080           0
        77 P1       13       ETHY     C2       CG321   -0.180000       12.0110           0
        78 P1       13       ETHY     H21      HGA2     0.090000        1.0080           0
        79 P1       13       ETHY     H23      HGA2     0.090000        1.0080           0
        80 P1       14       ETHY     C1       CG321   -0.180000       12.0110           0
        81 P1       14       ETHY     H11      HGA2     0.090000        1.0080           0
        82 P1       14       ETHY     H13      HGA2     0.090000        1.0080           0
        83 P1       14       ETHY     C2       CG321   -0.180000       12.0110           0
        84 P1       14       ETHY     H21      HGA2     0.090000        1.0080           0
        85 P1       14       ETHY     H23      HGA2     0.090000        1.0080           0
        86 P1       15       ETHY     C1       CG321   -0.180000       12.0110           0
        87 P1       15       ETHY     H11      HGA2     0.090000        1.0080           0
        88 P1       15       ETHY     H13      HGA2     0.090000        1.0080           0
        89 P1       15       ETHY     C2       CG321   -0.180000       12.0110           0
        90 P1       15       ETHY     H21      HGA2     0.090000        1.0080           0
        91 P1       15       ETHY     H23      HGA2     0.090000        1.0080           0
        92 P1       16       ETHY     C1       CG321   -0.180000       12.0110           0
        93 P1       16       ETHY     H11      HGA2     0.090000        1.0080           0
        94 P1       16       ETHY     H13      HGA2     0.090000        1.0080           0
        95 P1       16       ETHY     C2       CG321   -0.180000       12.0110           0
        96 P1       16       ETHY     H21      HGA2     0.090000        1.0080           0
        97 P1       16       ETHY     H23      HGA2     0.090000        1.0080           0
        98 P1       17       ETHY     C1       CG321   -0.180000       12.0110           0
        99 P1       17       ETHY     H11      HGA2     0.090000        1.0080           0
       100 P1       17       ETHY     H13      HGA2     0.090000        1.0080           0
       101 P1       17       ETHY     C2       CG321   -0.180000       12.0110           0
       102 P1       17       ETHY     H21      HGA2     0.090000        1.0080           0
       103 P1       17       ETHY     H23      HGA2     0.090000        1.0080           0
       104 P1       18       ETHY     C1       CG321   -0.180000       12.0110           0
       105 P1       18       ETHY     H11      HGA2     0.090000        1.0080           0
       106 P1       18       ETHY     H13      HGA2     0.090000        1.0080           0
       107 P1       18       ETHY     C2       CG321   -0.180000       12.0110           0
       108 P1       18       ETHY     H21      HGA2     0.090000        1.0080           0
       109 P1       18       ETHY     H23      HGA2     0.090000        1.0080           0
       110 P1       19       ETHY     C1       CG321   -0.180000       12.0110           0
       111 P1       19       ETHY     H11      HGA2     0.090000        1.0080           0
       112 P1       19       ETHY     H13      HGA2     0.090000        1.0080           0
       113 P1       19       ETHY     C2       CG321   -0.180000       12.0110           0
       114 P1       19       ETHY     H21      HGA2     0.090000        1.0080           0
       115 P1       19       ETHY     H23      HGA2     0.090000        1.0080           0
       116 P1       20       ETHY     C1       CG321   -0.180000       12.0110           0
       117 P1       20       ETHY     H11      HGA2     0.090000        1.0080           0
       118 P1       20       ETHY     H13      HGA2     0.090000        1.0080           0
       119 P1       20       ETHY     C2       CG321   -0.180000       12.0110           0
       120 P1       20       ETHY     H21      HGA2     0.090000        1.0080           0
       121 P1       20       ETHY     H23      HGA2     0.090000        1.0080           0
       122 P1       21       ETHY     C1       CG321   -0.180000       12.0110           0
       123 P1       21       ETHY     H11      HGA2     0.090000        1.0080           0
       124 P1       21       ETHY     H13      HGA2     0.090000        1.0080           0
       125 P1       21       ETHY     C2       CG321   -0.180000       12.0110           0
       126 P1       21       ETHY     H21      HGA2     0.090000        1.0080           0
       127 P1       21       ETHY     H23      HGA2     0.090000        1.0080           0
       128 P1       22       ETHY     C1       CG321   -0.180000       12.0110           0
       129 P1       22       ETHY     H11      HGA2     0.090000        1.0080           0
       130 P1       22       ETHY     H13      HGA2     0.090000        1.0080           0
       131 P1       22       ETHY     C2       CG321   -0.180000       12.0110           0
       132 P1       22       ETHY     H21      HGA2     0.090000        1.0080           0
       133 P1       22       ETHY     H23      HGA2     0.090000        1.0080           0
       134 P1       23       ETHY     C1       CG321   -0.180000       12.0110           0
       135 P1       23       ETHY     H11      HGA2     0.090000        1.0080           0
       136 P1       23       ETHY     H13      HGA2     0.090000        1.0080           0
       137 P1       23       ETHY     C2       CG321   -0.180000       12.0110           0
       138 P1       23       ETHY     H21      HGA2     0.090000        1.0080           0
       139 P1       23       ETHY     H23      HGA2     0.090000        1.0080           0
       140 P1       24       ETHY     C1       CG321   -0.180000       12.0110           0
       141 P1       24       ETHY     H11      HGA2     0.090000        1.0080           0
       142 P1       24       ETHY     H13      HGA2     0.090000        1.0080           0
       143 P1       24       ETHY     C2       CG321   -0.180000       12.0110           0
       144 P1       24       ETHY     H21      HGA2     0.090000        1.0080           0
       145 P1       24       ETHY     H23      HGA2     0.090000        1.0080           0
       146 P1       25       ETHY     C1       CG321   -0.180000       12.0110           0
       147 P1       25       ETHY     H11      HGA2     0.090000        1.0080           0
       148 P1       25       ETHY     H13      HGA2     0.090000        1.0080           0
       149 P1       25       ETHY     C2       CG321   -0.180000       12.0110           0
       150 P1       25       ETHY     H21      HGA2     0.090000        1.0080           0
       151 P1       25       ETHY     H23      HGA2     0.090000        1.0080           0
       152 P1       26       ETHY     C1       CG321   -0.180000       12.0110           0
       153 P1       26       ETHY     H11      HGA2     0.090000        1.0080           0
       154 P1       26       ETHY     H13      HGA2     0.090000        1.0080           0
       155 P1       26       ETHY     C2       CG321   -0.180000       12.0110           0
       156 P1       26       ETHY     H21      HGA2     0.090000        1.0080           0
       157 P1       26       ETHY     H23      HGA2     0.090000        1.0080           0
       158 P1       27       ETHY     C1       CG321   -0.180000       12.0110           0
       159 P1       27       ETHY     H11      HGA2     0.090000        1.0080           0
       160 P1       27       ETHY     H13      HGA2     0.090000        1.0080           0
       161 P1       27       ETHY     C2       CG321   -0.180000       12.0110           0
       162 P1       27       ETHY     H21      HGA2     0.090000        1.0080           0
       163 P1       27       ETHY     H23      HGA2     0.090000        1.0080           0
       164 P1       28       ETHY     C1       CG321   -0.180000       12.0110           0
       165 P1       28       ETHY     H11      HGA2     0.090000        1.0080           0
       166 P1       28       ETHY     H13      HGA2     0.090000        1.0080           0
       167 P1       28       ETHY     C2       CG321   -0.180000       12.0110           0
       168 P1       28       ETHY     H21      HGA2     0.090000        1.0080           0
       169 P1       28       ETHY     H23      HGA2     0.090000        1.0080           0
       170 P1       29       ETHY     C1       CG321   -0.180000       12.0110           0
       171 P1       29       ETHY     H11      HGA2     0.090000        1.0080           0
       172 P1       29       ETHY     H13      HGA2     0.090000        1.0080           0
       173 P1       29       ETHY     C2       CG321   -0.180000       12.0110           0
       174 P1       29       ETHY     H21      HGA2     0.090000        1.0080           0
       175 P1       29       ETHY     H23      HGA2     0.090000        1.0080           0
       176 P1       30       ETHY     C1       CG321   -0.180000       12.0110           0
       177 P1       30       ETHY     H11      HGA2     0.090000        1.0080           0
       178 P1       30       ETHY     H13      HGA2     0.090000        1.0080           0
       179 P1       30       ETHY     C2       CG321   -0.180000       12.0110           0
       180 P1       30       ETHY     H21      HGA2     0.090000        1.0080           0
       181 P1       30       ETHY     H23      HGA2     0.090000        1.0080           0
       182 P1       31       ETHY     C1       CG321   -0.180000       12.0110           0
       183 P1       31       ETHY     H11      HGA2     0.090000        1.0080           0
       184 P1       31       ETHY     H13      HGA2     0.090000        1.0080           0
       185 P1       31       ETHY     C2       CG321   -0.180000       12.0110           0
       186 P1       31       ETHY     H21      HGA2     0.090000        1.0080           0
       187 P1       31       ETHY     H23      HGA2     0.090000        1.0080           0
       188 P1       32       ETHY     C1       CG321   -0.180000       12.0110           0
       189 P1       32       ETHY     H11      HGA2     0.090000        1.0080           0
       190 P1       32       ETHY     H13      HGA2     0.090000        1.0080           0
       191 P1       32       ETHY     C2       CG321   -0.180000       12.0110           0
       192 P1       32       ETHY     H21      HGA2     0.090000        1.0080           0
       193 P1       32       ETHY     H23      HGA2     0.090000        1.0080           0
       194 P1       33       ETHY     C1       CG321   -0.180000       12.0110           0
       195 P1       33       ETHY     H11      HGA2     0.090000        1.0080           0
       196 P1       33       ETHY     H13      HGA2     0.090000        1.0080           0
       197 P1       33       ETHY     C2       CG321   -0.180000       12.0110           0
       198 P1       33       ETHY     H21      HGA2     0.090000        1.0080           0
       199 P1       33       ETHY     H23      HGA2     0.090000        1.0080           0
       200 P1       34       ETHY     C1       CG321   -0.180000       12.0110           0
       201 P1       34       ETHY     H11      HGA2     0.090000        1.0080           0
       202 P1       34       ETHY     H13      HGA2     0.090000        1.0080           0
       203 P1       34       ETHY     C2       CG321   -0.180000       12.0110           0
       204 P1       34       ETHY     H21      HGA2     0.090000        1.0080           0
       205 P1       34       ETHY     H23      HGA2     0.090000        1.0080           0
       206 P1       35       ETHY     C1       CG321   -0.180000       12.0110           0
       207 P1       35       ETHY     H11      HGA2     0.090000        1.0080           0
       208 P1       35       ETHY     H13      HGA2     0.090000        1.0080           0
       209 P1       35       ETHY     C2       CG321   -0.180000       12.0110           0
       210 P1       35       ETHY     H21      HGA2     0.090000        1.0080           0
       211 P1       35       ETHY     H23      HGA2     0.090000        1.0080           0
       212 P1       36       ETHY     C1       CG321   -0.180000       12.0110           0
       213 P1       36       ETHY     H11      HGA2     0.090000        1.0080           0
       214 P1       36       ETHY     H13      HGA2     0.090000        1.0080           0
       215 P1       36       ETHY     C2       CG321   -0.180000       12.0110           0
       216 P1       36       ETHY     H21      HGA2     0.090000        1.0080           0
       217 P1       36       ETHY     H23      HGA2     0.090000        1.0080           0
       218 P1       37       ETHY     C1       CG321   -0.180000       12.0110           0
       219 P1       37       ETHY     H11      HGA2     0.090000        1.0080           0
       220 P1       37       ETHY     H13      HGA2     0.090000        1.0080           0
       221 P1       37       ETHY     C2       CG321   -0.180000       12.0110           0
       222 P1       37       ETHY     H21      HGA2     0.090000        1.0080           0
       223 P1       37       ETHY     H23      HGA2     0.090000        1.0080           0
       224 P1       38       ETHY     C1       CG321   -0.180000       12.0110           0
       225 P1       38       ETHY     H11      HGA2     0.090000        1.0080           0
       226 P1       38       ETHY     H13      HGA2     0.090000        1.0080           0
       227 P1       38       ETHY     C2       CG321   -0.180000       12.0110           0
       228 P1       38       ETHY     H21      HGA2     0.090000        1.0080           0
       229 P1       38       ETHY     H23      HGA2     0.090000        1.0080           0
       230 P1       39       ETHY     C1       CG321   -0.180000       12.0110           0
       231 P1       39       ETHY     H11      HGA2     0.090000        1.0080           0
       232 P1       39       ETHY     H13      HGA2     0.090000        1.0080           0
       233 P1       39       ETHY     C2       CG321   -0.180000       12.0110           0
       234 P1       39       ETHY     H21      HGA2     0.090000        1.0080           0
       235 P1       39       ETHY     H23      HGA2     0.090000        1.0080           0
       236 P1       40       ETHY     C1       CG321   -0.180000       12.0110           0
       237 P1       40       ETHY     H11      HGA2     0.090000        1.0080           0
       238 P1       40       ETHY     H13      HGA2     0.090000        1.0080           0
       239 P1       40       ETHY     C2       CG321   -0.180000       12.0110           0
       240 P1       40       ETHY     H21      HGA2     0.090000        1.0080           0
       241 P1       40       ETHY     H23      HGA2     0.090000        1.0080           0
       242 P1       41       ETHY     C1       CG321   -0.180000       12.0110           0
       243 P1       41       ETHY     H11      HGA2     0.090000        1.0080           0
       244 P1       41       ETHY     H13      HGA2     0.090000        1.0080           0
       245 P1       41       ETHY     C2       CG321   -0.180000       12.0110           0
       246 P1       41       ETHY     H21      HGA2     0.090000        1.0080           0
       247 P1       41       ETHY     H23      HGA2     0.090000        1.0080           0
       248 P1       42       ETHY     C1       CG321   -0.180000       12.0110           0
       249 P1       42       ETHY     H11      HGA2     0.090000        1.0080           0
       250 P1       42       ETHY     H13      HGA2     0.090000        1.0080           0
       251 P1       42       ETHY     C2       CG321   -0.180000       12.0110           0
       252 P1       42       ETHY     H21      HGA2     0.090000        1.0080           0
       253 P1       42       ETHY     H23      HGA2     0.090000        1.0080           0
       254 P1       43       ETHY     C1       CG321   -0.180000       12.0110           0
       255 P1       43       ETHY     H11      HGA2     0.090000        1.0080           0
       256 P1       43       ETHY     H13      HGA2     0.090000        1.0080           0
       257 P1       43       ETHY     C2       CG321   -0.180000       12.0110           0
       258 P1       43       ETHY     H21      HGA2     0.090000        1.0080           0
       259 P1       43       ETHY     H23      HGA2     0.090000        1.0080           0
       260 P1       44       ETHY     C1       CG321   -0.180000       12.0110           0
       261 P1       44       ETHY     H11      HGA2     0.090000        1.0080           0
       262 P1       44       ETHY     H13      HGA2     0.090000        1.0080           0
       263 P1       44       ETHY     C2       CG321   -0.180000       12.0110           0
       264 P1       44       ETHY     H21      HGA2     0.090000        1.0080           0
       265 P1       44       ETHY     H23      HGA2     0.090000        1.0080           0
       266 P1       45       ETHY     C1       CG321   -0.180000       12.0110           0
       267 P1       45       ETHY     H11      HGA2     0.090000        1.0080           0
       268 P1       45       ETHY     H13      HGA2     0.090000        1.0080           0
       269 P1       45       ETHY     C2       CG321   -0.180000       12.0110           0
       270 P1       45       ETHY     H21      HGA2     0.090000        1.0080           0
       271 P1       45       ETHY     H23      HGA2     0.090000        1.0080           0
       272 P1       46       ETHY     C1       CG321   -0.180000       12.0110           0
       273 P1       46       ETHY     H11      HGA2     0.090000        1.0080           0
       274 P1       46       ETHY     H13      HGA2     0.090000        1.0080           0
       275 P1       46       ETHY     C2       CG321   -0.180000       12.0110           0
       276 P1       46       ETHY     H21      HGA2     0.090000        1.0080           0
       277 P1       46       ETHY     H23      HGA2     0.090000        1.0080           0
       278 P1       47       ETHY     C1       CG321   -0.180000       12.0110           0
       279 P1       47       ETHY     H11      HGA2     0.090000        1.0080           0
       280 P1       47       ETHY     H13      HGA2     0.090000        1.0080           0
       281 P1       47       ETHY     C2       CG321   -0.180000       12.0110           0
       282 P1       47       ETHY     H21      HGA2     0.090000        1.0080           0
       283 P1       47       ETHY     H23      HGA2     0.090000        1.0080           0
       284 P1       48       ETHY     C1       CG321   -0.180000       12.0110           0
       285 P1       48       ETHY     H11      HGA2     0.090000        1.0080           0
       286 P1       48       ETHY     H13      HGA2     0.090000        1.0080           0
       287 P1       48       ETHY     C2       CG321   -0.180000       12.0110           0
       288 P1       48       ETHY     H21      HGA2     0.090000        1.0080           0
       289 P1       48       ETHY     H23      HGA2     0.090000        1.0080           0
       290 P1       49       ETHY     C1       CG321   -0.180000       12.0110           0
       291 P1       49       ETHY     H11      HGA2     0.090000        1.0080           0
       292 P1       49       ETHY     H13      HGA2     0.090000        1.0080           0
       293 P1       49       ETHY     C2       CG321   -0.180000       12.0110           0
       294 P1       49       ETHY     H21      HGA2     0.090000        1.0080           0
       295 P1       49       ETHY     H23      HGA2     0.090000        1.0080           0
       296 P1       50       ETHY     C1       CG321   -0.180000       12.0110           0
       297 P1       50       ETHY     H11      HGA2     0.090000        1.0080           0
       298 P1       50       ETHY     H13      HGA2     0.090000        1.0080           0
       299 P1       50       ETHY     C2       CG321   -0.180000       12.0110           0
       300 P1       50       ETHY     H21      HGA2     0.090000        1.0080           0
       301 P1       50       ETHY     H23      HGA2     0.090000        1.0080           0
       302 P1       51       ETHY     C1       CG321   -0.180000       12.0110           0
       303 P1       51       ETHY     H11      HGA2     0.090000        1.0080           0
       304 P1       51       ETHY     H13      HGA2     0.090000        1.0080           0
       305 P1       51       ETHY     C2       CG321   -0.180000       12.0110           0
       306 P1       51       ETHY     H21      HGA2     0.090000        1.0080           0
       307 P1       51       ETHY     H23      HGA2     0.090000        1.0080           0
       308 P1       52       ETHY     C1       CG321   -0.180000       12.0110           0
       309 P1       52       ETHY     H11      HGA2     0.090000        1.0080           0
       310 P1       52       ETHY     H13      HGA2     0.090000        1.0080           0
       311 P1       52       ETHY     C2       CG321   -0.180000       12.0110           0
       312 P1       52       ETHY     H21      HGA2     0.090000        1.0080           0
       313 P1       52       ETHY     H23      HGA2     0.090000        1.0080           0
       314 P1       53       ETHY     C1       CG321   -0.180000       12.0110           0
       315 P1       53       ETHY     H11      HGA2     0.090000        1.0080           0
       316 P1       53       ETHY     H13      HGA2     0.090000        1.0080           0
       317 P1       53       ETHY     C2       CG321   -0.180000       12.0110           0
       318 P1       53       ETHY     H21      HGA2     0.090000        1.0080           0
       319 P1       53       ETHY     H23      HGA2     0.090000        1.0080           0
       320 P1       54       ETHY     C1       CG321   -0.180000       12.0110           0
       321 P1       54       ETHY     H11      HGA2     0.090000        1.0080           0
       322 P1       54       ETHY     H13      HGA2     0.090000        1.0080           0
       323 P1       54       ETHY     C2       CG321   -0.180000       12.0110           0
       324 P1       54       ETHY     H21      HGA2     0.090000        1.0080           0
       325 P1       54       ETHY     H23      HGA2     0.090000        1.0080           0
       326 P1       55       ETHY     C1       CG321   -0.180000       12.0110           0
       327 P1       55       ETHY     H11      HGA2     0.090000        1.0080           0
       328 P1       55       ETHY     H13      HGA2     0.090000        1.0080           0
       329 P1       55       ETHY     C2       CG321   -0.180000       12.0110           0
       330 P1       55       ETHY     H21      HGA2     0.090000        1.0080           0
       331 P1       55       ETHY     H23      HGA2     0.090000        1.0080           0
       332 P1       56       ETHY     C1       CG321   -0.180000       12.0110           0
       333 P1       56       ETHY     H11      HGA2     0.090000        1.0080           0
       334 P1       56       ETHY     H13      HGA2     0.090000        1.0080           0
       335 P1       56       ETHY     C2       CG321   -0.180000       12.0110           0
       336 P1       56       ETHY     H21      HGA2     0.090000        1.0080           0
       337 P1       56       ETHY     H23      HGA2     0.090000        1.0080           0
       338 P1       57       ETHY     C1       CG321   -0.180000       12.0110           0
       339 P1       57       ETHY     H11      HGA2     0.090000        1.0080           0
       340 P1       57       ETHY     H13      HGA2     0.090000        1.0080           0
       341 P1       57       ETHY     C2       CG321   -0.180000       12.0110           0
       342 P1       57       ETHY     H21      HGA2     0.090000        1.0080           0
       343 P1       57       ETHY     H23      HGA2     0.090000        1.0080           0
       344 P1       58       ETHY     C1       CG321   -0.180000       12.0110           0
       345 P1       58       ETHY     H11      HGA2     0.090000        1.0080           0
       346 P1       58       ETHY     H13      HGA2     0.090000        1.0080           0
       347 P1       58       ETHY     C2       CG321   -0.180000       12.0110           0
       348 P1       58       ETHY     H21      HGA2     0.090000        1.0080           0
       349 P1       58       ETHY     H23      HGA2     0.090000        1.0080           0
       350 P1       59       ETHY     C1       CG321   -0.180000       12.0110           0
       351 P1       59       ETHY     H11      HGA2     0.090000        1.0080           0
       352 P1       59       ETHY     H13      HGA2     0.090000        1.0080           0
       353 P1       59       ETHY     C2       CG321   -0.180000       12.0110           0
       354 P1       59       ETHY     H21      HGA2     0.090000        1.0080           0
       355 P1       59       ETHY     H23      HGA2     0.090000        1.0080           0
       356 P1       60       ETHY     C1       CG321   -0.180000       12.0110           0
       357 P1       60       ETHY     H11      HGA2     0.090000        1.0080           0
       358 P1       60       ETHY     H13      HGA2     0.090000        1.0080           0
       359 P1       60       ETHY     C2       CG331   -0.270000       12.0110           0
       360 P1       60       ETHY     H22      HGA3     0.090000        1.0080           0
       361 P1       60       ETHY     H21      HGA3     0.090000        1.0080           0
       362 P1       60       ETHY     H23      HGA3     0.090000        1.0080           0
       363 P2       1        ETHY     C1       CG331   -0.270000       12.0110           0
       364 P2       1        ETHY     H11      HGA3     0.090000        1.0080           0
       365 P2       1        ETHY     H12      HGA3     0.090000        1.0080           0
       366 P2       1        ETHY     H13      HGA3     0.090000        1.0080           0
       367 P2       1        ETHY     C2       CG321   -0.180000       12.0110           0
       368 P2       1        ETHY     H21      HGA2     0.090000        1.0080           0
       369 P2       1        ETHY     H23      HGA2     0.090000        1.0080           0
       370 P2       2        ETHY     C1       CG321   -0.180000       12.0110           0
       371 P2       2        ETHY     H11      HGA2     0.090000        1.0080           0
       372 P2       2        ETHY     H13      HGA2     0.090000        1.0080           0
       373 P2       2        ETHY     C2       CG321   -0.180000       12.0110           0
       374 P2       2        ETHY     H21      HGA2     0.090000        1.0080           0
       375 P2       2        ETHY     H23      HGA2     0.090000        1.0080           0
       376 P2       3        ETHY     C1       CG321   -0.180000       12.0110           0
       377 P2       3        ETHY     H11      HGA2     0.090000        1.0080           0
       378 P2       3        ETHY     H13      HGA2     0.090000        1.0080           0
       379 P2       3        ETHY     C2       CG321   -0.180000       12.0110           0
       380 P2       3        ETHY     H21      HGA2     0.090000        1.0080           0
       381 P2       3        ETHY     H23      HGA2     0.090000        1.0080           0
       382 P2       4        ETHY     C1       CG321   -0.180000       12.0110           0
       383 P2       4        ETHY     H11      HGA2     0.090000        1.0080           0
       384 P2       4        ETHY     H13      HGA2     0.090000        1.0080           0
       385 P2       4        ETHY     C2       CG321   -0.180000       12.0110           0
       386 P2       4        ETHY     H21      HGA2     0.090000        1.0080           0
       387 P2       4        ETHY     H23      HGA2     0.090000        1.0080           0
       388 P2       5        ETHY     C1       CG321   -0.180000       12.0110           0
       389 P2       5        ETHY     H11      HGA2     0.090000        1.0080           0
       390 P2       5        ETHY     H13      HGA2     0.090000        1.0080           0
       391 P2       5        ETHY     C2       CG321   -0.180000       12.0110           0
       392 P2       5        ETHY     H21      HGA2     0.090000        1.0080           0
       393 P2       5        ETHY     H23      HGA2     0.090000        1.0080           0
       394 P2       6        ETHY     C1       CG321   -0.180000       12.0110           0
       395 P2       6        ETHY     H11      HGA2     0.090000        1.0080           0
       396 P2       6        ETHY     H13      HGA2     0.090000        1.0080           0
       397 P2       6        ETHY     C2       CG321   -0.180000       12.0110           0
       398 P2       6        ETHY     H21      HGA2     0.090000        1.0080           0
       399 P2       6        ETHY     H23      HGA2     0.090000        1.0080           0
       400 P2       7        ETHY     C1       CG321   -0.180000       12.0110           0
       401 P2       7        ETHY     H11      HGA2     0.090000        1.0080           0
       402 P2       7        ETHY     H13      HGA2     0.090000        1.0080           0
       403 P2       7        ETHY     C2       CG321   -0.180000       12.0110           0
       404 P2       7        ETHY     H21      HGA2     0.090000        1.0080           0
       405 P2       7        ETHY     H23      HGA2     0.090000        1.0080           0
       406 P2       8        ETHY     C1       CG321   -0.180000       12.0110           0
       407 P2       8        ETHY     H11      HGA2     0.090000        1.0080           0
       408 P2       8        ETHY     H13      HGA2     0.090000        1.0080           0
       409 P2       8        ETHY     C2       CG321   -0.180000       12.0110           0
       410 P2       8        ETHY     H21      HGA2     0.090000        1.0080           0
       411 P2       8        ETHY     H23      HGA2     0.090000        1.0080           0
       412 P2       9        ETHY     C1       CG321   -0.180000       12.0110           0
       413 P2       9        ETHY     H11      HGA2     0.090000        1.0080           0
       414 P2       9        ETHY     H13      HGA2     0.090000        1.0080           0
       415 P2       9        ETHY     C2       CG321   -0.180000       12.0110           0
       416 P2       9        ETHY     H21      HGA2     0.090000        1.0080           0
       417 P2       9        ETHY     H23      HGA2     0.090000        1.0080           0
       418 P2       10       ETHY     C1       CG321   -0.180000       12.0110           0
       419 P2       10       ETHY     H11      HGA2     0.090000        1.0080           0
       420 P2       10       ETHY     H13      HGA2     0.090000        1.0080           0
       421 P2       10       ETHY     C2       CG321   -0.180000       12.0110           0
       422 P2       10       ETHY     H21      HGA2     0.090000        1.0080           0
       423 P2       10       ETHY     H23      HGA2     0.090000        1.0080           0
       424 P2       11       ETHY     C1       CG321   -0.180000       12.0110           0
       425 P2       11       ETHY     H11      HGA2     0.090000        1.0080           0
       426 P2       11       ETHY     H13      HGA2     0.090000        1.0080           0
       427 P2       11       ETHY     C2       CG321   -0.180000       12.0110           0
       428 P2       11       ETHY     H21      HGA2     0.090000        1.0080           0
       429 P2       11       ETHY     H23      HGA2     0.090000        1.0080           0
       430 P2       12       ETHY     C1       CG321   -0.180000       12.0110           0
       431 P2       12       ETHY     H11      HGA2     0.090000        1.0080           0
       432 P2       12       ETHY     H13      HGA2     0.090000        1.0080           0
       433 P2       12       ETHY     C2       CG321   -0.180000       12.0110           0
       434 P2       12       ETHY     H21      HGA2     0.090000        1.0080           0
       435 P2       12       ETHY     H23      HGA2     0.090000        1.0080           0
       436 P2       13       ETHY     C1       CG321   -0.180000       12.0110           0
       437 P2       13       ETHY     H11      HGA2     0.090000        1.0080           0
       438 P2       13       ETHY     H13      HGA2     0.090000        1.0080           0
       439 P2       13       ETHY     C2       CG321   -0.180000       12.0110           0
       440 P2       13       ETHY     H21      HGA2     0.090000        1.0080           0
       441 P2       13       ETHY     H23      HGA2     0.090000        1.0080           0
       442 P2       14       ETHY     C1       CG321   -0.180000       12.0110           0
       443 P2       14       ETHY     H11      HGA2     0.090000        1.0080           0
       444 P2       14       ETHY     H13      HGA2     0.090000        1.0080           0
       445 P2       14       ETHY     C2       CG321   -0.180000       12.0110           0
       446 P2       14       ETHY     H21      HGA2     0.090000        1.0080           0
       447 P2       14       ETHY     H23      HGA2     0.090000        1.0080           0
       448 P2       15       ETHY     C1       CG321   -0.180000       12.0110           0
       449 P2       15       ETHY     H11      HGA2     0.090000        1.0080           0
       450 P2       15       ETHY     H13      HGA2     0.090000        1.0080           0
       451 P2       15       ETHY     C2       CG321   -0.180000       12.0110           0
       452 P2       15       ETHY     H21      HGA2     0.090000        1.0080           0
       453 P2       15       ETHY     H23      HGA2     0.090000        1.0080           0
       454 P2       16       ETHY     C1       CG321   -0.180000       12.0110           0
       455 P2       16       ETHY     H11      HGA2     0.090000        1.0080           0
       456 P2       16       ETHY     H13      HGA2     0.090000        1.0080           0
       457 P2       16       ETHY     C2       CG321   -0.180000       12.0110           0
       458 P2       16       ETHY     H21      HGA2     0.090000        1.0080           0
       459 P2       16       ETHY     H23      HGA2     0.090000        1.0080           0
       460 P2       17       ETHY     C1       CG321   -0.180000       12.0110           0
       461 P2       17       ETHY     H11      HGA2     0.090000        1.0080           0
       462 P2       17       ETHY     H13      HGA2     0.090000        1.0080           0
       463 P2       17       ETHY     C2       CG321   -0.180000       12.0110           0
       464 P2       17       ETHY     H21      HGA2     0.090000        1.0080           0
       465 P2       17       ETHY     H23      HGA2     0.090000        1.0080           0
       466 P2       18       ETHY     C1       CG321   -0.180000       12.0110           0
       467 P2       18       ETHY     H11      HGA2     0.090000        1.0080           0
       468 P2       18       ETHY     H13      HGA2     0.090000        1.0080           0
       469 P2       18       ETHY     C2       CG321   -0.180000       12.0110           0
       470 P2       18       ETHY     H21      HGA2     0.090000        1.0080           0
       471 P2       18       ETHY     H23      HGA2     0.090000        1.0080           0
       472 P2       19       ETHY     C1       CG321   -0.180000       12.0110           0
       473 P2       19       ETHY     H11      HGA2     0.090000        1.0080           0
       474 P2       19       ETHY     H13      HGA2     0.090000        1.0080           0
       475 P2       19       ETHY     C2       CG321   -0.180000       12.0110           0
       476 P2       19       ETHY     H21      HGA2     0.090000        1.0080           0
       477 P2       19       ETHY     H23      HGA2     0.090000        1.0080           0
       478 P2       20       ETHY     C1       CG321   -0.180000       12.0110           0
       479 P2       20       ETHY     H11      HGA2     0.090000        1.0080           0
       480 P2       20       ETHY     H13      HGA2     0.090000        1.0080           0
       481 P2       20       ETHY     C2       CG321   -0.180000       12.0110           0
       482 P2       20       ETHY     H21      HGA2     0.090000        1.0080           0
       483 P2       20       ETHY     H23      HGA2     0.090000        1.0080           0
       484 P2       21       ETHY     C1       CG321   -0.180000       12.0110           0
       485 P2       21       ETHY     H11      HGA2     0.090000        1.0080           0
       486 P2       21       ETHY     H13      HGA2     0.090000        1.0080           0
       487 P2       21       ETHY     C2       CG321   -0.180000       12.0110           0
       488 P2       21       ETHY     H21      HGA2     0.090000        1.0080           0
       489 P2       21       ETHY     H23      HGA2     0.090000        1.0080           0
       490 P2       22       ETHY     C1       CG321   -0.180000       12.0110           0
       491 P2       22       ETHY     H11      HGA2     0.090000        1.0080           0
       492 P2       22       ETHY     H13      HGA2     0.090000        1.0080           0
       493 P2       22       ETHY     C2       CG321   -0.180000       12.0110           0
       494 P2       22       ETHY     H21      HGA2     0.090000        1.0080           0
       495 P2       22       ETHY     H23      HGA2     0.090000        1.0080           0
       496 P2       23       ETHY     C1       CG321   -0.180000       12.0110           0
       497 P2       23       ETHY     H11      HGA2     0.090000        1.0080           0
       498 P2       23       ETHY     H13      HGA2     0.090000        1.0080           0
       499 P2       23       ETHY     C2       CG321   -0.180000       12.0110           0
       500 P2       23       ETHY     H21      HGA2     0.090000        1.0080           0
       501 P2       23       ETHY     H23      HGA2     0.090000        1.0080           0
       502 P2       24       ETHY     C1       CG321   -0.180000       12.0110           0
       503 P2       24       ETHY     H11      HGA2     0.090000        1.0080           0
       504 P2       24       ETHY     H13      HGA2     0.090000        1.0080           0
       505 P2       24       ETHY     C2       CG321   -0.180000       12.0110           0
       506 P2       24       ETHY     H21      HGA2     0.090000        1.0080           0
       507 P2       24       ETHY     H23      HGA2     0.090000        1.0080           0
       508 P2       25       ETHY     C1       CG321   -0.180000       12.0110           0
       509 P2       25       ETHY     H11      HGA2     0.090000        1.0080           0
       510 P2       25       ETHY     H13      HGA2     0.090000        1.0080           0
       511 P2       25       ETHY     C2       CG321   -0.180000       12.0110           0
       512 P2       25       ETHY     H21      HGA2     0.090000        1.0080           0
       513 P2       25       ETHY     H23      HGA2     0.090000        1.0080           0
       514 P2       26       ETHY     C1       CG321   -0.180000       12.0110           0
       515 P2       26       ETHY     H11      HGA2     0.090000        1.0080           0
       516 P2       26       ETHY     H13      HGA2     0.090000        1.0080           0
       517 P2       26       ETHY     C2       CG321   -0.180000       12.0110           0
       518 P2       26       ETHY     H21      HGA2     0.090000        1.0080           0
       519 P2       26       ETHY     H23      HGA2     0.090000        1.0080           0
       520 P2       27       ETHY     C1       CG321   -0.180000       12.0110           0
       521 P2       27       ETHY     H11      HGA2     0.090000        1.0080           0
       522 P2       27       ETHY     H13      HGA2     0.090000        1.0080           0
       523 P2       27       ETHY     C2       CG321   -0.180000       12.0110           0
       524 P2       27       ETHY     H21      HGA2     0.090000        1.0080           0
       525 P2       27       ETHY     H23      HGA2     0.090000        1.0080           0
       526 P2       28       ETHY     C1       CG321   -0.180000       12.0110           0
       527 P2       28       ETHY     H11      HGA2     0.090000        1.0080           0
       528 P2       28       ETHY     H13      HGA2     0.090000        1.0080           0
       529 P2       28       ETHY     C2       CG321   -0.180000       12.0110           0
       530 P2       28       ETHY     H21      HGA2     0.090000        1.0080           0
       531 P2       28       ETHY     H23      HGA2     0.090000        1.0080           0
       532 P2       29       ETHY     C1       CG321   -0.180000       12.0110           0
       533 P2       29       ETHY     H11      HGA2     0.090000        1.0080           0
       534 P2       29       ETHY     H13      HGA2     0.090000        1.0080           0
       535 P2       29       ETHY     C2       CG321   -0.180000       12.0110           0
       536 P2       29       ETHY     H21      HGA2     0.090000        1.0080           0
       537 P2       29       ETHY     H23      HGA2     0.090000        1.0080           0
       538 P2       30       ETHY     C1       CG321   -0.180000       12.0110           0
       539 P2       30       ETHY     H11      HGA2     0.090000        1.0080           0
       540 P2       30       ETHY     H13      HGA2     0.090000        1.0080           0
       541 P2       30       ETHY     C2       CG321   -0.180000       12.0110           0
       542 P2       30       ETHY     H21      HGA2     0.090000        1.0080           0
       543 P2       30       ETHY     H23      HGA2     0.090000        1.0080           0
       544 P2       31       ETHY     C1       CG321   -0.180000       12.0110           0
       545 P2       31       ETHY     H11      HGA2     0.090000        1.0080           0
       546 P2       31       ETHY     H13      HGA2     0.090000        1.0080           0
       547 P2       31       ETHY     C2       CG321   -0.180000       12.0110           0
       548 P2       31       ETHY     H21      HGA2     0.090000        1.0080           0
       549 P2       31       ETHY     H23      HGA2     0.090000        1.0080           0
       550 P2       32       ETHY     C1       CG321   -0.180000       12.0110           0
       551 P2       32       ETHY     H11      HGA2     0.090000        1.0080           0
       552 P2       32       ETHY     H13      HGA2     0.090000        1.0080           0
       553 P2       32       ETHY     C2       CG321   -0.180000       12.0110           0
       554 P2       32       ETHY     H21      HGA2     0.090000        1.0080           0
       555 P2       32       ETHY     H23      HGA2     0.090000        1.0080           0
       556 P2       33       ETHY     C1       CG321   -0.180000       12.0110           0
       557 P2       33       ETHY     H11      HGA2     0.090000        1.0080           0
       558 P2       33       ETHY     H13      HGA2     0.090000        1.0080           0
       559 P2       33       ETHY     C2       CG321   -0.180000       12.0110           0
       560 P2       33       ETHY     H21      HGA2     0.090000        1.0080           0
       561 P2       33       ETHY     H23      HGA2     0.090000        1.0080           0
       562 P2       34       ETHY     C1       CG321   -0.180000       12.0110           0
       563 P2       34       ETHY     H11      HGA2     0.090000        1.0080           0
       564 P2       34       ETHY     H13      HGA2     0.090000        1.0080           0
       565 P2       34       ETHY     C2       CG321   -0.180000       12.0110           0
       566 P2       34       ETHY     H21      HGA2     0.090000        1.0080           0
       567 P2       34       ETHY     H23      HGA2     0.090000        1.0080           0
       568 P2       35       ETHY     C1       CG321   -0.180000       12.0110           0
       569 P2       35       ETHY     H11      HGA2     0.090000        1.0080           0
       570 P2       35       ETHY     H13      HGA2     0.090000        1.0080           0
       571 P2       35       ETHY     C2       CG321   -0.180000       12.0110           0
       572 P2       35       ETHY     H21      HGA2     0.090000        1.0080           0
       573 P2       35       ETHY     H23      HGA2     0.090000        1.0080           0
       574 P2       36       ETHY     C1       CG321   -0.180000       12.0110           0
       575 P2       36       ETHY     H11      HGA2     0.090000        1.0080           0
       576 P2       36       ETHY     H13      HGA2     0.090000        1.0080           0
       577 P2       36       ETHY     C2       CG321   -0.180000       12.0110           0
       578 P2       36       ETHY     H21      HGA2     0.090000        1.0080           0
       579 P2       36       ETHY     H23      HGA2     0.090000        1.0080           0
       580 P2       37       ETHY     C1       CG321   -0.180000       12.0110           0
       581 P2       37       ETHY     H11      HGA2     0.090000        1.0080           0
       582 P2       37       ETHY     H13      HGA2     0.090000        1.0080           0
       583 P2       37       ETHY     C2       CG321   -0.180000       12.0110           0
       584 P2       37       ETHY     H21      HGA2     0.090000        1.0080           0
       585 P2       37       ETHY     H23      HGA2     0.090000        1.0080           0
       586 P2       38       ETHY     C1       CG321   -0.180000       12.0110           0
       587 P2       38       ETHY     H11      HGA2     0.090000        1.0080           0
       588 P2       38       ETHY     H13      HGA2     0.090000        1.0080           0
       589 P2       38       ETHY     C2       CG321   -0.180000       12.0110           0
       590 P2       38       ETHY     H21      HGA2     0.090000        1.0080           0
       591 P2       38       ETHY     H23      HGA2     0.090000        1.0080           0
       592 P2       39       ETHY     C1       CG321   -0.180000       12.0110           0
       593 P2       39       ETHY     H11      HGA2     0.090000        1.0080           0
       594 P2       39       ETHY     H13      HGA2     0.090000        1.0080           0
       595 P2       39       ETHY     C2       CG321   -0.180000       12.0110           0
       596 P2       39       ETHY     H21      HGA2     0.090000        1.0080           0
       597 P2       39       ETHY     H23      HGA2     0.090000        1.0080           0
       598 P2       40       ETHY     C1       CG321   -0.180000       12.0110           0
       599 P2       40       ETHY     H11      HGA2     0.090000        1.0080           0
       600 P2       40       ETHY     H13      HGA2     0.090000        1.0080           0
       601 P2       40       ETHY     C2       CG321   -0.180000       12.0110           0
       602 P2       40       ETHY     H21      HGA2     0.090000        1.0080           0
       603 P2       40       ETHY     H23      HGA2     0.090000        1.0080           0
       604 P2       41       ETHY     C1       CG321   -0.180000       12.0110           0
       605 P2       41       ETHY     H11      HGA2     0.090000        1.0080           0
       606 P2       41       ETHY     H13      HGA2     0.090000        1.0080           0
       607 P2       41       ETHY     C2       CG321   -0.180000       12.0110           0
       608 P2       41       ETHY     H21      HGA2     0.090000        1.0080           0
       609 P2       41       ETHY     H23      HGA2     0.090000        1.0080           0
       610 P2       42       ETHY     C1       CG321   -0.180000       12.0110           0
       611 P2       42       ETHY     H11      HGA2     0.090000        1.0080           0
       612 P2       42       ETHY     H13      HGA2     0.090000        1.0080           0
       613 P2       42       ETHY     C2       CG321   -0.180000       12.0110           0
       614 P2       42       ETHY     H21      HGA2     0.090000        1.0080           0
       615 P2       42       ETHY     H23      HGA2     0.090000        1.0080           0
       616 P2       43       ETHY     C1       CG321   -0.180000       12.0110           0
       617 P2       43       ETHY     H11      HGA2     0.090000        1.0080           0
       618 P2       43       ETHY     H13      HGA2     0.090000        1.0080           0
       619 P2       43       ETHY     C2       CG321   -0.180000       12.0110           0
       620 P2       43       ETHY     H21      HGA2     0.090000        1.0080           0
       621 P2       43       ETHY     H23      HGA2     0.090000        1.0080           0
       622 P2       44       ETHY     C1       CG321   -0.180000       12.0110           0
       623 P2       44       ETHY     H11      HGA2     0.090000        1.0080           0
       624 P2       44       ETHY     H13      HGA2     0.090000        1.0080           0
       625 P2       44       ETHY     C2       CG321   -0.180000       12.0110           0
       626 P2       44       ETHY     H21      HGA2     0.090000        1.0080           0
       627 P2       44       ETHY     H23      HGA2     0.090000        1.0080           0
       628 P2       45       ETHY     C1       CG321   -0.180000       12.0110           0
       629 P2       45       ETHY     H11      HGA2     0.090000        1.0080           0
       630 P2       45       ETHY     H13      HGA2     0.090000        1.0080           0
       631 P2       45       ETHY     C2       CG321   -0.180000       12.0110           0
       632 P2       45       ETHY     H21      HGA2     0.090000        1.0080           0
       633 P2       45       ETHY     H23      HGA2     0.090000        1.0080           0
       634 P2       46       ETHY     C1       CG321   -0.180000       12.0110           0
       635 P2       46       ETHY     H11      HGA2     0.090000        1.0080           0
       636 P2       46       ETHY     H13      HGA2     0.090000        1.0080           0
       637 P2       46       ETHY     C2       CG321   -0.180000       12.0110           0
       638 P2       46       ETHY     H21      HGA2     0.090000        1.0080           0
       639 P2       46       ETHY     H23      HGA2     0.090000        1.0080           0
       640 P2       47       ETHY     C1       CG321   -0.180000       12.0110           0
       641 P2       47       ETHY     H11      HGA2     0.090000        1.0080           0
       642 P2       47       ETHY     H13      HGA2     0.090000        1.0080           0
       643 P2       47       ETHY     C2       CG321   -0.180000       12.0110           0
       644 P2       47       ETHY     H21      HGA2     0.090000        1.0080           0
       645 P2       47       ETHY     H23      HGA2     0.090000        1.0080           0
       646 P2       48       ETHY     C1       CG321   -0.180000       12.0110           0
       647 P2       48       ETHY     H11      HGA2     0.090000        1.0080           0
       648 P2       48       ETHY     H13      HGA2     0.090000        1.0080           0
       649 P2       48       ETHY     C2       CG321   -0.180000       12.0110           0
       650 P2       48       ETHY     H21      HGA2     0.090000        1.0080           0
       651 P2       48       ETHY     H23      HGA2     0.090000        1.0080           0
       652 P2       49       ETHY     C1       CG321   -0.180000       12.0110           0
       653 P2       49       ETHY     H11      HGA2     0.090000        1.0080           0
       654 P2       49       ETHY     H13      HGA2     0.090000        1.0080           0
       655 P2       49       ETHY     C2       CG321   -0.180000       12.0110           0
       656 P2       49       ETHY     H21      HGA2     0.090000        1.0080           0
       657 P2       49       ETHY     H23      HGA2     0.090000        1.0080           0
       658 P2       50       ETHY     C1       CG321   -0.180000       12.0110           0
       659 P2       50       ETHY     H11      HGA2     0.090000        1.0080           0
       660 P2       50       ETHY     H13      HGA2     0.090000        1.0080           0
       661 P2       50       ETHY     C2       CG321   -0.180000       12.0110           0
       662 P2       50       ETHY     H21      HGA2     0.090000        1.0080           0
       663 P2       50       ETHY     H23      HGA2     0.090000        1.0080           0
       664 P2       51       ETHY     C1       CG321   -0.180000       12.0110           0
       665 P2       51       ETHY     H11      HGA2     0.090000        1.0080           0
       666 P2       51       ETHY     H13      HGA2     0.090000        1.0080           0
       667 P2       51       ETHY     C2       CG321   -0.180000       12.0110           0
       668 P2       51       ETHY     H21      HGA2     0.090000        1.0080           0
       669 P2       51       ETHY     H23      HGA2     0.090000        1.0080           0
       670 P2       52       ETHY     C1       CG321   -0.180000       12.0110           0
       671 P2       52       ETHY     H11      HGA2     0.090000        1.0080           0
       672 P2       52       ETHY     H13      HGA2     0.090000        1.0080           0
       673 P2       52       ETHY     C2       CG321   -0.180000       12.0110           0
       674 P2       52       ETHY     H21      HGA2     0.090000        1.0080           0
       675 P2       52       ETHY     H23      HGA2     0.090000        1.0080           0
       676 P2       53       ETHY     C1       CG321   -0.180000       12.0110           0
       677 P2       53       ETHY     H11      HGA2     0.090000        1.0080           0
       678 P2       53       ETHY     H13      HGA2     0.090000        1.0080           0
       679 P2       53       ETHY     C2       CG321   -0.180000       12.0110           0
       680 P2       53       ETHY     H21      HGA2     0.090000        1.0080           0
       681 P2       53       ETHY     H23      HGA2     0.090000        1.0080           0
       682 P2       54       ETHY     C1       CG321   -0.180000       12.0110           0
       683 P2       54       ETHY     H11      HGA2     0.090000        1.0080           0
       684 P2       54       ETHY     H13      HGA2     0.090000        1.0080           0
       685 P2       54       ETHY     C2       CG321   -0.180000       12.0110           0
       686 P2       54       ETHY     H21      HGA2     0.090000        1.0080           0
       687 P2       54       ETHY     H23      HGA2     0.090000        1.0080           0
       688 P2       55       ETHY     C1       CG321   -0.180000       12.0110           0
       689 P2       55       ETHY     H11      HGA2     0.090000        1.0080           0
       690 P2       55       ETHY     H13      HGA2     0.090000        1.0080           0
       691 P2       55       ETHY     C2       CG321   -0.180000       12.0110           0
       692 P2       55       ETHY     H21      HGA2     0.090000        1.0080           0
       693 P2       55       ETHY     H23      HGA2     0.090000        1.0080           0
       694 P2       56       ETHY     C1       CG321   -0.180000       12.0110           0
       695 P2       56       ETHY     H11      HGA2     0.090000        1.0080           0
       696 P2       56       ETHY     H13      HGA2     0.090000        1.0080           0
       697 P2       56       ETHY     C2       CG321   -0.180000       12.0110           0
       698 P2       56       ETHY     H21      HGA2     0.090000        1.0080           0
       699 P2       56       ETHY     H23      HGA2     0.090000        1.0080           0
       700 P2       57       ETHY     C1       CG321   -0.180000       12.0110           0
       701 P2       57       ETHY     H11      HGA2     0.090000        1.0080           0
       702 P2       57       ETHY     H13      HGA2     0.090000        1.0080           0
       703 P2       57       ETHY     C2       CG321   -0.180000       12.0110           0
       704 P2       57       ETHY     H21      HGA2     0.090000        1.0080           0
       705 P2       57       ETHY     H23      HGA2     0.090000        1.0080           0
       706 P2       58       ETHY     C1       CG321   -0.180000       12.0110           0
       707 P2       58       ETHY     H11      HGA2     0.090000        1.0080           0
       708 P2       58       ETHY     H13      HGA2     0.090000        1.0080           0
       709 P2       58       ETHY     C2       CG321   -0.180000       12.0110           0
       710 P2       58       ETHY     H21      HGA2     0.090000        1.0080           0
       711 P2       58       ETHY     H23      HGA2     0.090000        1.0080           0
       712 P2       59       ETHY     C1       CG321   -0.180000       12.0110           0
       713 P2       59       ETHY     H11      HGA2     0.090000        1.0080           0
       714 P2       59       ETHY     H13      HGA2     0.090000        1.0080           0
       715 P2       59       ETHY     C2       CG321   -0.180000       12.0110           0
       716 P2       59       ETHY     H21      HGA2     0.090000        1.0080           0
       717 P2       59       ETHY     H23      HGA2     0.090000        1.0080           0
       718 P2       60       ETHY     C1       CG321   -0.180000       12.0110           0
       719 P2       60       ETHY     H11      HGA2     0.090000        1.0080           0
       720 P2       60       ETHY     H13      HGA2     0.090000        1.0080           0
       721 P2       60       ETHY     C2       CG331   -0.270000       12.0110           0
       722 P2       60       ETHY     H22      HGA3     0.090000        1.0080           0
       723 P2       60       ETHY     H21      HGA3     0.090000        1.0080           0
       724 P2       60       ETHY     H23      HGA3     0.090000        1.0080           0
       725 P3       1        ETHY     C1       CG331   -0.270000       12.0110           0
       726 P3       1        ETHY     H11      HGA3     0.090000        1.0080           0
       727 P3       1        ETHY     H12      HGA3     0.090000        1.0080           0
       728 P3       1        ETHY     H13      HGA3     0.090000        1.0080           0
       729 P3       1        ETHY     C2       CG321   -0.180000       12.0110           0
       730 P3       1        ETHY     H21      HGA2     0.090000        1.0080           0
       731 P3       1        ETHY     H23      HGA2     0.090000        1.0080           0
       732 P3       2        ETHY     C1       CG321   -0.180000       12.0110           0
       733 P3       2        ETHY     H11      HGA2     0.090000        1.0080           0
       734 P3       2        ETHY     H13      HGA2     0.090000        1.0080           0
       735 P3       2        ETHY     C2       CG321   -0.180000       12.0110           0
       736 P3       2        ETHY     H21      HGA2     0.090000        1.0080           0
       737 P3       2        ETHY     H23      HGA2     0.090000        1.0080           0
       738 P3       3        ETHY     C1       CG321   -0.180000       12.0110           0
       739 P3       3        ETHY     H11      HGA2     0.090000        1.0080           0
       740 P3       3        ETHY     H13      HGA2     0.090000        1.0080           0
       741 P3       3        ETHY     C2       CG321   -0.180000       12.0110           0
       742 P3       3        ETHY     H21      HGA2     0.090000        1.0080           0
       743 P3       3        ETHY     H23      HGA2     0.090000        1.0080           0
       744 P3       4        ETHY     C1       CG321   -0.180000       12.0110           0
       745 P3       4        ETHY     H11      HGA2     0.090000        1.0080           0
       746 P3       4        ETHY     H13      HGA2     0.090000        1.0080           0
       747 P3       4        ETHY     C2       CG321   -0.180000       12.0110           0
       748 P3       4        ETHY     H21      HGA2     0.090000        1.0080           0
       749 P3       4        ETHY     H23      HGA2     0.090000        1.0080           0
       750 P3       5        ETHY     C1       CG321   -0.180000       12.0110           0
       751 P3       5        ETHY     H11      HGA2     0.090000        1.0080           0
       752 P3       5        ETHY     H13      HGA2     0.090000        1.0080           0
       753 P3       5        ETHY     C2       CG321   -0.180000       12.0110           0
       754 P3       5        ETHY     H21      HGA2     0.090000        1.0080           0
       755 P3       5        ETHY     H23      HGA2     0.090000        1.0080           0
       756 P3       6        ETHY     C1       CG321   -0.180000       12.0110           0
       757 P3       6        ETHY     H11      HGA2     0.090000        1.0080           0
       758 P3       6        ETHY     H13      HGA2     0.090000        1.0080           0
       759 P3       6        ETHY     C2       CG321   -0.180000       12.0110           0
       760 P3       6        ETHY     H21      HGA2     0.090000        1.0080           0
       761 P3       6        ETHY     H23      HGA2     0.090000        1.0080           0
       762 P3       7        ETHY     C1       CG321   -0.180000       12.0110           0
       763 P3       7        ETHY     H11      HGA2     0.090000        1.0080           0
       764 P3       7        ETHY     H13      HGA2     0.090000        1.0080           0
       765 P3       7        ETHY     C2       CG321   -0.180000       12.0110           0
       766 P3       7        ETHY     H21      HGA2     0.090000        1.0080           0
       767 P3       7        ETHY     H23      HGA2     0.090000        1.0080           0
       768 P3       8        ETHY     C1       CG321   -0.180000       12.0110           0
       769 P3       8        ETHY     H11      HGA2     0.090000        1.0080           0
       770 P3       8        ETHY     H13      HGA2     0.090000        1.0080           0
       771 P3       8        ETHY     C2       CG321   -0.180000       12.0110           0
       772 P3       8        ETHY     H21      HGA2     0.090000        1.0080           0
       773 P3       8        ETHY     H23      HGA2     0.090000        1.0080           0
       774 P3       9        ETHY     C1       CG321   -0.180000       12.0110           0
       775 P3       9        ETHY     H11      HGA2     0.090000        1.0080           0
       776 P3       9        ETHY     H13      HGA2     0.090000        1.0080           0
       777 P3       9        ETHY     C2       CG321   -0.180000       12.0110           0
       778 P3       9        ETHY     H21      HGA2     0.090000        1.0080           0
       779 P3       9        ETHY     H23      HGA2     0.090000        1.0080           0
       780 P3       10       ETHY     C1       CG321   -0.180000       12.0110           0
       781 P3       10       ETHY     H11      HGA2     0.090000        1.0080           0
       782 P3       10       ETHY     H13      HGA2     0.090000        1.0080           0
       783 P3       10       ETHY     C2       CG321   -0.180000       12.0110           0
       784 P3       10       ETHY     H21      HGA2     0.090000        1.0080           0
       785 P3       10       ETHY     H23      HGA2     0.090000        1.0080           0
       786 P3       11       ETHY     C1       CG321   -0.180000       12.0110           0
       787 P3       11       ETHY     H11      HGA2     0.090000        1.0080           0
       788 P3       11       ETHY     H13      HGA2     0.090000        1.0080           0
       789 P3       11       ETHY     C2       CG321   -0.180000       12.0110           0
       790 P3       11       ETHY     H21      HGA2     0.090000        1.0080           0
       791 P3       11       ETHY     H23      HGA2     0.090000        1.0080           0
       792 P3       12       ETHY     C1       CG321   -0.180000       12.0110           0
       793 P3       12       ETHY     H11      HGA2     0.090000        1.0080           0
       794 P3       12       ETHY     H13      HGA2     0.090000        1.0080           0
       795 P3       12       ETHY     C2       CG321   -0.180000       12.0110           0
       796 P3       12       ETHY     H21      HGA2     0.090000        1.0080           0
       797 P3       12       ETHY     H23      HGA2     0.090000        1.0080           0
       798 P3       13       ETHY     C1       CG321   -0.180000       12.0110           0
       799 P3       13       ETHY     H11      HGA2     0.090000        1.0080           0
       800 P3       13       ETHY     H13      HGA2     0.090000        1.0080           0
       801 P3       13       ETHY     C2       CG321   -0.180000       12.0110           0
       802 P3       13       ETHY     H21      HGA2     0.090000        1.0080           0
       803 P3       13       ETHY     H23      HGA2     0.090000        1.0080           0
       804 P3       14       ETHY     C1       CG321   -0.180000       12.0110           0
       805 P3       14       ETHY     H11      HGA2     0.090000        1.0080           0
       806 P3       14       ETHY     H13      HGA2     0.090000        1.0080           0
       807 P3       14       ETHY     C2       CG321   -0.180000       12.0110           0
       808 P3       14       ETHY     H21      HGA2     0.090000        1.0080           0
       809 P3       14       ETHY     H23      HGA2     0.090000        1.0080           0
       810 P3       15       ETHY     C1       CG321   -0.180000       12.0110           0
       811 P3       15       ETHY     H11      HGA2     0.090000        1.0080           0
       812 P3       15       ETHY     H13      HGA2     0.090000        1.0080           0
       813 P3       15       ETHY     C2       CG321   -0.180000       12.0110           0
       814 P3       15       ETHY     H21      HGA2     0.090000        1.0080           0
       815 P3       15       ETHY     H23      HGA2     0.090000        1.0080           0
       816 P3       16       ETHY     C1       CG321   -0.180000       12.0110           0
       817 P3       16       ETHY     H11      HGA2     0.090000        1.0080           0
       818 P3       16       ETHY     H13      HGA2     0.090000        1.0080           0
       819 P3       16       ETHY     C2       CG321   -0.180000       12.0110           0
       820 P3       16       ETHY     H21      HGA2     0.090000        1.0080           0
       821 P3       16       ETHY     H23      HGA2     0.090000        1.0080           0
       822 P3       17       ETHY     C1       CG321   -0.180000       12.0110           0
       823 P3       17       ETHY     H11      HGA2     0.090000        1.0080           0
       824 P3       17       ETHY     H13      HGA2     0.090000        1.0080           0
       825 P3       17       ETHY     C2       CG321   -0.180000       12.0110           0
       826 P3       17       ETHY     H21      HGA2     0.090000        1.0080           0
       827 P3       17       ETHY     H23      HGA2     0.090000        1.0080           0
       828 P3       18       ETHY     C1       CG321   -0.180000       12.0110           0
       829 P3       18       ETHY     H11      HGA2     0.090000        1.0080           0
       830 P3       18       ETHY     H13      HGA2     0.090000        1.0080           0
       831 P3       18       ETHY     C2       CG321   -0.180000       12.0110           0
       832 P3       18       ETHY     H21      HGA2     0.090000        1.0080           0
       833 P3       18       ETHY     H23      HGA2     0.090000        1.0080           0
       834 P3       19       ETHY     C1       CG321   -0.180000       12.0110           0
       835 P3       19       ETHY     H11      HGA2     0.090000        1.0080           0
       836 P3       19       ETHY     H13      HGA2     0.090000        1.0080           0
       837 P3       19       ETHY     C2       CG321   -0.180000       12.0110           0
       838 P3       19       ETHY     H21      HGA2     0.090000        1.0080           0
       839 P3       19       ETHY     H23      HGA2     0.090000        1.0080           0
       840 P3       20       ETHY     C1       CG321   -0.180000       12.0110           0
       841 P3       20       ETHY     H11      HGA2     0.090000        1.0080           0
       842 P3       20       ETHY     H13      HGA2     0.090000        1.0080           0
       843 P3       20       ETHY     C2       CG321   -0.180000       12.0110           0
       844 P3       20       ETHY     H21      HGA2     0.090000        1.0080           0
       845 P3       20       ETHY     H23      HGA2     0.090000        1.0080           0
       846 P3       21       ETHY     C1       CG321   -0.180000       12.0110           0
       847 P3       21       ETHY     H11      HGA2     0.090000        1.0080           0
       848 P3       21       ETHY     H13      HGA2     0.090000        1.0080           0
       849 P3       21       ETHY     C2       CG321   -0.180000       12.0110           0
       850 P3       21       ETHY     H21      HGA2     0.090000        1.0080           0
       851 P3       21       ETHY     H23      HGA2     0.090000        1.0080           0
       852 P3       22       ETHY     C1       CG321   -0.180000       12.0110           0
       853 P3       22       ETHY     H11      HGA2     0.090000        1.0080           0
       854 P3       22       ETHY     H13      HGA2     0.090000        1.0080           0
       855 P3       22       ETHY     C2       CG321   -0.180000       12.0110           0
       856 P3       22       ETHY     H21      HGA2     0.090000        1.0080           0
       857 P3       22       ETHY     H23      HGA2     0.090000        1.0080           0
       858 P3       23       ETHY     C1       CG321   -0.180000       12.0110           0
       859 P3       23       ETHY     H11      HGA2     0.090000        1.0080           0
       860 P3       23       ETHY     H13      HGA2     0.090000        1.0080           0
       861 P3       23       ETHY     C2       CG321   -0.180000       12.0110           0
       862 P3       23       ETHY     H21      HGA2     0.090000        1.0080           0
       863 P3       23       ETHY     H23      HGA2     0.090000        1.0080           0
       864 P3       24       ETHY     C1       CG321   -0.180000       12.0110           0
       865 P3       24       ETHY     H11      HGA2     0.090000        1.0080           0
       866 P3       24       ETHY     H13      HGA2     0.090000        1.0080           0
       867 P3       24       ETHY     C2       CG321   -0.180000       12.0110           0
       868 P3       24       ETHY     H21      HGA2     0.090000        1.0080           0
       869 P3       24       ETHY     H23      HGA2     0.090000        1.0080           0
       870 P3       25       ETHY     C1       CG321   -0.180000       12.0110           0
       871 P3       25       ETHY     H11      HGA2     0.090000        1.0080           0
       872 P3       25       ETHY     H13      HGA2     0.090000        1.0080           0
       873 P3       25       ETHY     C2       CG321   -0.180000       12.0110           0
       874 P3       25       ETHY     H21      HGA2     0.090000        1.0080           0
       875 P3       25       ETHY     H23      HGA2     0.090000        1.0080           0
       876 P3       26       ETHY     C1       CG321   -0.180000       12.0110           0
       877 P3       26       ETHY     H11      HGA2     0.090000        1.0080           0
       878 P3       26       ETHY     H13      HGA2     0.090000        1.0080           0
       879 P3       26       ETHY     C2       CG321   -0.180000       12.0110           0
       880 P3       26       ETHY     H21      HGA2     0.090000        1.0080           0
       881 P3       26       ETHY     H23      HGA2     0.090000        1.0080           0
       882 P3       27       ETHY     C1       CG321   -0.180000       12.0110           0
       883 P3       27       ETHY     H11      HGA2     0.090000        1.0080           0
       884 P3       27       ETHY     H13      HGA2     0.090000        1.0080           0
       885 P3       27       ETHY     C2       CG321   -0.180000       12.0110           0
       886 P3       27       ETHY     H21      HGA2     0.090000        1.0080           0
       887 P3       27       ETHY     H23      HGA2     0.090000        1.0080           0
       888 P3       28       ETHY     C1       CG321   -0.180000       12.0110           0
       889 P3       28       ETHY     H11      HGA2     0.090000        1.0080           0
       890 P3       28       ETHY     H13      HGA2     0.090000        1.0080           0
       891 P3       28       ETHY     C2       CG321   -0.180000       12.0110           0
       892 P3       28       ETHY     H21      HGA2     0.090000        1.0080           0
       893 P3       28       ETHY     H23      HGA2     0.090000        1.0080           0
       894 P3       29       ETHY     C1       CG321   -0.180000       12.0110           0
       895 P3       29       ETHY     H11      HGA2     0.090000        1.0080           0
       896 P3       29       ETHY     H13      HGA2     0.090000        1.0080           0
       897 P3       29       ETHY     C2       CG321   -0.180000       12.0110           0
       898 P3       29       ETHY     H21      HGA2     0.090000        1.0080           0
       899 P3       29       ETHY     H23      HGA2     0.090000        1.0080           0
       900 P3       30       ETHY     C1       CG321   -0.180000       12.0110           0
       901 P3       30       ETHY     H11      HGA2     0.090000        1.0080           0
       902 P3       30       ETHY     H13      HGA2     0.090000        1.0080           0
       903 P3       30       ETHY     C2       CG321   -0.180000       12.0110           0
       904 P3       30       ETHY     H21      HGA2     0.090000        1.0080           0
       905 P3       30       ETHY     H23      HGA2     0.090000        1.0080           0
       906 P3       31       ETHY     C1       CG321   -0.180000       12.0110           0
       907 P3       31       ETHY     H11      HGA2     0.090000        1.0080           0
       908 P3       31       ETHY     H13      HGA2     0.090000        1.0080           0
       909 P3       31       ETHY     C2       CG321   -0.180000       12.0110           0
       910 P3       31       ETHY     H21      HGA2     0.090000        1.0080           0
       911 P3       31       ETHY     H23      HGA2     0.090000        1.0080           0
       912 P3       32       ETHY     C1       CG321   -0.180000       12.0110           0
       913 P3       32       ETHY     H11      HGA2     0.090000        1.0080           0
       914 P3       32       ETHY     H13      HGA2     0.090000        1.0080           0
       915 P3       32       ETHY     C2       CG321   -0.180000       12.0110           0
       916 P3       32       ETHY     H21      HGA2     0.090000        1.0080           0
       917 P3       32       ETHY     H23      HGA2     0.090000        1.0080           0
       918 P3       33       ETHY     C1       CG321   -0.180000       12.0110           0
       919 P3       33       ETHY     H11      HGA2     0.090000        1.0080           0
       920 P3       33       ETHY     H13      HGA2     0.090000        1.0080           0
       921 P3       33       ETHY     C2       CG321   -0.180000       12.0110           0
       922 P3       33       ETHY     H21      HGA2     0.090000        1.0080           0
       923 P3       33       ETHY     H23      HGA2     0.090000        1.0080           0
       924 P3       34       ETHY     C1       CG321   -0.180000       12.0110           0
       925 P3       34       ETHY     H11      HGA2     0.090000        1.0080           0
       926 P3       34       ETHY     H13      HGA2     0.090000        1.0080           0
       927 P3       34       ETHY     C2       CG321   -0.180000       12.0110           0
       928 P3       34       ETHY     H21      HGA2     0.090000        1.0080           0
       929 P3       34       ETHY     H23      HGA2     0.090000        1.0080           0
       930 P3       35       ETHY     C1       CG321   -0.180000       12.0110           0
       931 P3       35       ETHY     H11      HGA2     0.090000        1.0080           0
       932 P3       35       ETHY     H13      HGA2     0.090000        1.0080           0
       933 P3       35       ETHY     C2       CG321   -0.180000       12.0110           0
       934 P3       35       ETHY     H21      HGA2     0.090000        1.0080           0
       935 P3       35       ETHY     H23      HGA2     0.090000        1.0080           0
       936 P3       36       ETHY     C1       CG321   -0.180000       12.0110           0
       937 P3       36       ETHY     H11      HGA2     0.090000        1.0080           0
       938 P3       36       ETHY     H13      HGA2     0.090000        1.0080           0
       939 P3       36       ETHY     C2       CG321   -0.180000       12.0110           0
       940 P3       36       ETHY     H21      HGA2     0.090000        1.0080           0
       941 P3       36       ETHY     H23      HGA2     0.090000        1.0080           0
       942 P3       37       ETHY     C1       CG321   -0.180000       12.0110           0
       943 P3       37       ETHY     H11      HGA2     0.090000        1.0080           0
       944 P3       37       ETHY     H13      HGA2     0.090000        1.0080           0
       945 P3       37       ETHY     C2       CG321   -0.180000       12.0110           0
       946 P3       37       ETHY     H21      HGA2     0.090000        1.0080           0
       947 P3       37       ETHY     H23      HGA2     0.090000        1.0080           0
       948 P3       38       ETHY     C1       CG321   -0.180000       12.0110           0
       949 P3       38       ETHY     H11      HGA2     0.090000        1.0080           0
       950 P3       38       ETHY     H13      HGA2     0.090000        1.0080           0
       951 P3       38       ETHY     C2       CG321   -0.180000       12.0110           0
       952 P3       38       ETHY     H21      HGA2     0.090000        1.0080           0
       953 P3       38       ETHY     H23      HGA2     0.090000        1.0080           0
       954 P3       39       ETHY     C1       CG321   -0.180000       12.0110           0
       955 P3       39       ETHY     H11      HGA2     0.090000        1.0080           0
       956 P3       39       ETHY     H13      HGA2     0.090000        1.0080           0
       957 P3       39       ETHY     C2       CG321   -0.180000       12.0110           0
       958 P3       39       ETHY     H21      HGA2     0.090000        1.0080           0
       959 P3       39       ETHY     H23      HGA2     0.090000        1.0080           0
       960 P3       40       ETHY     C1       CG321   -0.180000       12.0110           0
       961 P3       40       ETHY     H11      HGA2     0.090000        1.0080           0
       962 P3       40       ETHY     H13      HGA2     0.090000        1.0080           0
       963 P3       40       ETHY     C2       CG321   -0.180000       12.0110           0
       964 P3       40       ETHY     H21      HGA2     0.090000        1.0080           0
       965 P3       40       ETHY     H23      HGA2     0.090000        1.0080           0
       966 P3       41       ETHY     C1       CG321   -0.180000       12.0110           0
       967 P3       41       ETHY     H11      HGA2     0.090000        1.0080           0
       968 P3       41       ETHY     H13      HGA2     0.090000        1.0080           0
       969 P3       41       ETHY     C2       CG321   -0.180000       12.0110           0
       970 P3       41       ETHY     H21      HGA2     0.090000        1.0080           0
       971 P3       41       ETHY     H23      HGA2     0.090000        1.0080           0
       972 P3       42       ETHY     C1       CG321   -0.180000       12.0110           0
       973 P3       42       ETHY     H11      HGA2     0.090000        1.0080           0
       974 P3       42       ETHY     H13      HGA2     0.090000        1.0080           0
       975 P3       42       ETHY     C2       CG321   -0.180000       12.0110           0
       976 P3       42       ETHY     H21      HGA2     0.090000        1.0080           0
       977 P3       42       ETHY     H23      HGA2     0.090000        1.0080           0
       978 P3       43       ETHY     C1       CG321   -0.180000       12.0110           0
       979 P3       43       ETHY     H11      HGA2     0.090000        1.0080           0
       980 P3       43       ETHY     H13      HGA2     0.090000        1.0080           0
       981 P3       43       ETHY     C2       CG321   -0.180000       12.0110           0
       982 P3       43       ETHY     H21      HGA2     0.090000        1.0080           0
       983 P3       43       ETHY     H23      HGA2     0.090000        1.0080           0
       984 P3       44       ETHY     C1       CG321   -0.180000       12.0110           0
       985 P3       44       ETHY     H11      HGA2     0.090000        1.0080           0
       986 P3       44       ETHY     H13      HGA2     0.090000        1.0080           0
       987 P3       44       ETHY     C2       CG321   -0.180000       12.0110           0
       988 P3       44       ETHY     H21      HGA2     0.090000        1.0080           0
       989 P3       44       ETHY     H23      HGA2     0.090000        1.0080           0
       990 P3       45       ETHY     C1       CG321   -0.180000       12.0110           0
       991 P3       45       ETHY     H11      HGA2     0.090000        1.0080           0
       992 P3       45       ETHY     H13      HGA2     0.090000        1.0080           0
       993 P3       45       ETHY     C2       CG321   -0.180000       12.0110           0
       994 P3       45       ETHY     H21      HGA2     0.090000        1.0080           0
       995 P3       45       ETHY     H23      HGA2     0.090000        1.0080           0
       996 P3       46       ETHY     C1       CG321   -0.180000       12.0110           0
       997 P3       46       ETHY     H11      HGA2     0.090000        1.0080           0
       998 P3       46       ETHY     H13      HGA2     0.090000        1.0080           0
       999 P3       46       ETHY     C2       CG321   -0.180000       12.0110           0
      1000 P3       46       ETHY     H21      HGA2     0.090000        1.0080           0
      1001 P3       46       ETHY     H23      HGA2     0.090000        1.0080           0
      1002 P3       47       ETHY     C1       CG321   -0.180000       12.0110           0
      1003 P3       47       ETHY     H11      HGA2     0.090000        1.0080           0
      1004 P3       47       ETHY     H13      HGA2     0.090000        1.0080           0
      1005 P3       47       ETHY     C2       CG321   -0.180000       12.0110           0
      1006 P3       47       ETHY     H21      HGA2     0.090000        1.0080           0
      1007 P3       47       ETHY     H23      HGA2     0.090000        1.0080           0
      1008 P3       48       ETHY     C1       CG321   -0.180000       12.0110           0
      1009 P3       48       ETHY     H11      HGA2     0.090000        1.0080           0
      1010 P3       48       ETHY     H13      HGA2     0.090000        1.0080           0
      1011 P3       48       ETHY     C2       CG321   -0.180000       12.0110           0
      1012 P3       48       ETHY     H21      HGA2     0.090000        1.0080           0
      1013 P3       48       ETHY     H23      HGA2     0.090000        1.0080           0
      1014 P3       49       ETHY     C1       CG321   -0.180000       12.0110           0
      1015 P3       49       ETHY     H11      HGA2     0.090000        1.0080           0
      1016 P3       49       ETHY     H13      HGA2     0.090000        1.0080           0
      1017 P3       49       ETHY     C2       CG321   -0.180000       12.0110           0
      1018 P3       49       ETHY     H21      HGA2     0.090000        1.0080           0
      1019 P3       49       ETHY     H23      HGA2     0.090000        1.0080           0
      1020 P3       50       ETHY     C1       CG321   -0.180000       12.0110           0
      1021 P3       50       ETHY     H11      HGA2     0.090000        1.0080           0
      1022 P3       50       ETHY     H13      HGA2     0.090000        1.0080           0
      1023 P3       50       ETHY     C2       CG321   -0.180000       12.0110           0
      1024 P3       50       ETHY     H21      HGA2     0.090000        1.0080           0
      1025 P3       50       ETHY     H23      HGA2     0.090000        1.0080           0
      1026 P3       51       ETHY     C1       CG321   -0.180000       12.0110           0
      1027 P3       51       ETHY     H11      HGA2     0.090000        1.0080           0
      1028 P3       51       ETHY     H13      HGA2     0.090000        1.0080           0
      1029 P3       51       ETHY     C2       CG321   -0.180000       12.0110           0
      1030 P3       51       ETHY     H21      HGA2     0.090000        1.0080           0
      1031 P3       51       ETHY     H23      HGA2     0.090000        1.0080           0
      1032 P3       52       ETHY     C1       CG321   -0.180000       12.0110           0
      1033 P3       52       ETHY     H11      HGA2     0.090000        1.0080           0
      1034 P3       52       ETHY     H13      HGA2     0.090000        1.0080           0
      1035 P3       52       ETHY     C2       CG321   -0.180000       12.0110           0
      1036 P3       52       ETHY     H21      HGA2     0.090000        1.0080           0
      1037 P3       52       ETHY     H23      HGA2     0.090000        1.0080           0
      1038 P3       53       ETHY     C1       CG321   -0.180000       12.0110           0
      1039 P3       53       ETHY     H11      HGA2     0.090000        1.0080           0
      1040 P3       53       ETHY     H13      HGA2     0.090000        1.0080           0
      1041 P3       53       ETHY     C2       CG321   -0.180000       12.0110           0
      1042 P3       53       ETHY     H21      HGA2     0.090000        1.0080           0
      1043 P3       53       ETHY     H23      HGA2     0.090000        1.0080           0
      1044 P3       54       ETHY     C1       CG321   -0.180000       12.0110           0
      1045 P3       54       ETHY     H11      HGA2     0.090000        1.0080           0
      1046 P3       54       ETHY     H13      HGA2     0.090000        1.0080           0
      1047 P3       54       ETHY     C2       CG321   -0.180000       12.0110           0
      1048 P3       54       ETHY     H21      HGA2     0.090000        1.0080           0
      1049 P3       54       ETHY     H23      HGA2     0.090000        1.0080           0
      1050 P3       55       ETHY     C1       CG321   -0.180000       12.0110           0
      1051 P3       55       ETHY     H11      HGA2     0.090000        1.0080           0
      1052 P3       55       ETHY     H13      HGA2     0.090000        1.0080           0
      1053 P3       55       ETHY     C2       CG321   -0.180000       12.0110           0
      1054 P3       55       ETHY     H21      HGA2     0.090000        1.0080           0
      1055 P3       55       ETHY     H23      HGA2     0.090000        1.0080           0
      1056 P3       56       ETHY     C1       CG321   -0.180000       12.0110           0
      1057 P3       56       ETHY     H11      HGA2     0.090000        1.0080           0
      1058 P3       56       ETHY     H13      HGA2     0.090000        1.0080           0
      1059 P3       56       ETHY     C2       CG321   -0.180000       12.0110           0
      1060 P3       56       ETHY     H21      HGA2     0.090000        1.0080           0
      1061 P3       56       ETHY     H23      HGA2     0.090000        1.0080           0
      1062 P3       57       ETHY     C1       CG321   -0.180000       12.0110           0
      1063 P3       57       ETHY     H11      HGA2     0.090000        1.0080           0
      1064 P3       57       ETHY     H13      HGA2     0.090000        1.0080           0
      1065 P3       57       ETHY     C2       CG321   -0.180000       12.0110           0
      1066 P3       57       ETHY     H21      HGA2     0.090000        1.0080           0
      1067 P3       57       ETHY     H23      HGA2     0.090000        1.0080           0
      1068 P3       58       ETHY     C1       CG321   -0.180000       12.0110           0
      1069 P3       58       ETHY     H11      HGA2     0.090000        1.0080           0
      1070 P3       58       ETHY     H13      HGA2     0.090000        1.0080           0
      1071 P3       58       ETHY     C2       CG321   -0.180000       12.0110           0
      1072 P3       58       ETHY     H21      HGA2     0.090000        1.0080           0
      1073 P3       58       ETHY     H23      HGA2     0.090000        1.0080           0
      1074 P3       59       ETHY     C1       CG321   -0.180000       12.0110           0
      1075 P3       59       ETHY     H11      HGA2     0.090000        1.0080           0
      1076 P3       59       ETHY     H13      HGA2     0.090000        1.0080           0
      1077 P3       59       ETHY     C2       CG321   -0.180000       12.0110           0
      1078 P3       59       ETHY     H21      HGA2     0.090000        1.0080           0
      1079 P3       59       ETHY     H23      HGA2     0.090000        1.0080           0
      1080 P3       60       ETHY     C1       CG321   -0.180000       12.0110           0
      1081 P3       60       ETHY     H11      HGA2     0.090000        1.0080           0
      1082 P3       60       ETHY     H13      HGA2     0.090000        1.0080           0
      1083 P3       60       ETHY     C2       CG331   -0.270000       12.0110           0
      1084 P3       60       ETHY     H22      HGA3     0.090000        1.0080           0
      1085 P3       60       ETHY     H21      HGA3     0.090000        1.0080           0
      1086 P3       60       ETHY     H23      HGA3     0.090000        1.0080           0
      1087 P4       1        ETHY     C1       CG331   -0.270000       12.0110           0
      1088 P4       1        ETHY     H11      HGA3     0.090000        1.0080           0
      1089 P4       1        ETHY     H12      HGA3     0.090000        1.0080           0
      1090 P4       1        ETHY     H13      HGA3     0.090000        1.0080           0
      1091 P4       1        ETHY     C2       CG321   -0.180000       12.0110           0
      1092 P4       1        ETHY     H21      HGA2     0.090000        1.0080           0
      1093 P4       1        ETHY     H23      HGA2     0.090000        1.0080           0
      1094 P4       2        ETHY     C1       CG321   -0.180000       12.0110           0
      1095 P4       2        ETHY     H11      HGA2     0.090000        1.0080           0
      1096 P4       2        ETHY     H13      HGA2     0.090000        1.0080           0
      1097 P4       2        ETHY     C2       CG321   -0.180000       12.0110           0
      1098 P4       2        ETHY     H21      HGA2     0.090000        1.0080           0
      1099 P4       2        ETHY     H23      HGA2     0.090000        1.0080           0
      1100 P4       3        ETHY     C1       CG321   -0.180000       12.0110           0
      1101 P4       3        ETHY     H11      HGA2     0.090000        1.0080           0
      1102 P4       3        ETHY     H13      HGA2     0.090000        1.0080           0
      1103 P4       3        ETHY     C2       CG321   -0.180000       12.0110           0
      1104 P4       3        ETHY     H21      HGA2     0.090000        1.0080           0
      1105 P4       3        ETHY     H23      HGA2     0.090000        1.0080           0
      1106 P4       4        ETHY     C1       CG321   -0.180000       12.0110           0
      1107 P4       4        ETHY     H11      HGA2     0.090000        1.0080           0
      1108 P4       4        ETHY     H13      HGA2     0.090000        1.0080           0
      1109 P4       4        ETHY     C2       CG321   -0.180000       12.0110           0
      1110 P4       4        ETHY     H21      HGA2     0.090000        1.0080           0
      1111 P4       4        ETHY     H23      HGA2     0.090000        1.0080           0
      1112 P4       5        ETHY     C1       CG321   -0.180000       12.0110           0
      1113 P4       5        ETHY     H11      HGA2     0.090000        1.0080           0
      1114 P4       5        ETHY     H13      HGA2     0.090000        1.0080           0
      1115 P4       5        ETHY     C2       CG321   -0.180000       12.0110           0
      1116 P4       5        ETHY     H21      HGA2     0.090000        1.0080           0
      1117 P4       5        ETHY     H23      HGA2     0.090000        1.0080           0
      1118 P4       6        ETHY     C1       CG321   -0.180000       12.0110           0
      1119 P4       6        ETHY     H11      HGA2     0.090000        1.0080           0
      1120 P4       6        ETHY     H13      HGA2     0.090000        1.0080           0
      1121 P4       6        ETHY     C2       CG321   -0.180000       12.0110           0
      1122 P4       6        ETHY     H21      HGA2     0.090000        1.0080           0
      1123 P4       6        ETHY     H23      HGA2     0.090000        1.0080           0
      1124 P4       7        ETHY     C1       CG321   -0.180000       12.0110           0
      1125 P4       7        ETHY     H11      HGA2     0.090000        1.0080           0
      1126 P4       7        ETHY     H13      HGA2     0.090000        1.0080           0
      1127 P4       7        ETHY     C2       CG321   -0.180000       12.0110           0
      1128 P4       7        ETHY     H21      HGA2     0.090000        1.0080           0
      1129 P4       7        ETHY     H23      HGA2     0.090000        1.0080           0
      1130 P4       8        ETHY     C1       CG321   -0.180000       12.0110           0
      1131 P4       8        ETHY     H11      HGA2     0.090000        1.0080           0
      1132 P4       8        ETHY     H13      HGA2     0.090000        1.0080           0
      1133 P4       8        ETHY     C2       CG321   -0.180000       12.0110           0
      1134 P4       8        ETHY     H21      HGA2     0.090000        1.0080           0
      1135 P4       8        ETHY     H23      HGA2     0.090000        1.0080           0
      1136 P4       9        ETHY     C1       CG321   -0.180000       12.0110           0
      1137 P4       9        ETHY     H11      HGA2     0.090000        1.0080           0
      1138 P4       9        ETHY     H13      HGA2     0.090000        1.0080           0
      1139 P4       9        ETHY     C2       CG321   -0.180000       12.0110           0
      1140 P4       9        ETHY     H21      HGA2     0.090000        1.0080           0
      1141 P4       9        ETHY     H23      HGA2     0.090000        1.0080           0
      1142 P4       10       ETHY     C1       CG321   -0.180000       12.0110           0
      1143 P4       10       ETHY     H11      HGA2     0.090000        1.0080           0
      1144 P4       10       ETHY     H13      HGA2     0.090000        1.0080           0
      1145 P4       10       ETHY     C2       CG321   -0.180000       12.0110           0
      1146 P4       10       ETHY     H21      HGA2     0.090000        1.0080           0
      1147 P4       10       ETHY     H23      HGA2     0.090000        1.0080           0
      1148 P4       11       ETHY     C1       CG321   -0.180000       12.0110           0
      1149 P4       11       ETHY     H11      HGA2     0.090000        1.0080           0
      1150 P4       11       ETHY     H13      HGA2     0.090000        1.0080           0
      1151 P4       11       ETHY     C2       CG321   -0.180000       12.0110           0
      1152 P4       11       ETHY     H21      HGA2     0.090000        1.0080           0
      1153 P4       11       ETHY     H23      HGA2     0.090000        1.0080           0
      1154 P4       12       ETHY     C1       CG321   -0.180000       12.0110           0
      1155 P4       12       ETHY     H11      HGA2     0.090000        1.0080           0
      1156 P4       12       ETHY     H13      HGA2     0.090000        1.0080           0
      1157 P4       12       ETHY     C2       CG321   -0.180000       12.0110           0
      1158 P4       12       ETHY     H21      HGA2     0.090000        1.0080           0
      1159 P4       12       ETHY     H23      HGA2     0.090000        1.0080           0
      1160 P4       13       ETHY     C1       CG321   -0.180000       12.0110           0
      1161 P4       13       ETHY     H11      HGA2     0.090000        1.0080           0
      1162 P4       13       ETHY     H13      HGA2     0.090000        1.0080           0
      1163 P4       13       ETHY     C2       CG321   -0.180000       12.0110           0
      1164 P4       13       ETHY     H21      HGA2     0.090000        1.0080           0
      1165 P4       13       ETHY     H23      HGA2     0.090000        1.0080           0
      1166 P4       14       ETHY     C1       CG321   -0.180000       12.0110           0
      1167 P4       14       ETHY     H11      HGA2     0.090000        1.0080           0
      1168 P4       14       ETHY     H13      HGA2     0.090000        1.0080           0
      1169 P4       14       ETHY     C2       CG321   -0.180000       12.0110           0
      1170 P4       14       ETHY     H21      HGA2     0.090000        1.0080           0
      1171 P4       14       ETHY     H23      HGA2     0.090000        1.0080           0
      1172 P4       15       ETHY     C1       CG321   -0.180000       12.0110           0
      1173 P4       15       ETHY     H11      HGA2     0.090000        1.0080           0
      1174 P4       15       ETHY     H13      HGA2     0.090000        1.0080           0
      1175 P4       15       ETHY     C2       CG321   -0.180000       12.0110           0
      1176 P4       15       ETHY     H21      HGA2     0.090000        1.0080           0
      1177 P4       15       ETHY     H23      HGA2     0.090000        1.0080           0
      1178 P4       16       ETHY     C1       CG321   -0.180000       12.0110           0
      1179 P4       16       ETHY     H11      HGA2     0.090000        1.0080           0
      1180 P4       16       ETHY     H13      HGA2     0.090000        1.0080           0
      1181 P4       16       ETHY     C2       CG321   -0.180000       12.0110           0
      1182 P4       16       ETHY     H21      HGA2     0.090000        1.0080           0
      1183 P4       16       ETHY     H23      HGA2     0.090000        1.0080           0
      1184 P4       17       ETHY     C1       CG321   -0.180000       12.0110           0
      1185 P4       17       ETHY     H11      HGA2     0.090000        1.0080           0
      1186 P4       17       ETHY     H13      HGA2     0.090000        1.0080           0
      1187 P4       17       ETHY     C2       CG321   -0.180000       12.0110           0
      1188 P4       17       ETHY     H21      HGA2     0.090000        1.0080           0
      1189 P4       17       ETHY     H23      HGA2     0.090000        1.0080           0
      1190 P4       18       ETHY     C1       CG321   -0.180000       12.0110           0
      1191 P4       18       ETHY     H11      HGA2     0.090000        1.0080           0
      1192 P4       18       ETHY     H13      HGA2     0.090000        1.0080           0
      1193 P4       18       ETHY     C2       CG321   -0.180000       12.0110           0
      1194 P4       18       ETHY     H21      HGA2     0.090000        1.0080           0
      1195 P4       18       ETHY     H23      HGA2     0.090000        1.0080           0
      1196 P4       19       ETHY     C1       CG321   -0.180000       12.0110           0
      1197 P4       19       ETHY     H11      HGA2     0.090000        1.0080           0
      1198 P4       19       ETHY     H13      HGA2     0.090000        1.0080           0
      1199 P4       19       ETHY     C2       CG321   -0.180000       12.0110           0
      1200 P4       19       ETHY     H21      HGA2     0.090000        1.0080           0
      1201 P4       19       ETHY     H23      HGA2     0.090000        1.0080           0
      1202 P4       20       ETHY     C1       CG321   -0.180000       12.0110           0
      1203 P4       20       ETHY     H11      HGA2     0.090000        1.0080           0
      1204 P4       20       ETHY     H13      HGA2     0.090000        1.0080           0
      1205 P4       20       ETHY     C2       CG321   -0.180000       12.0110           0
      1206 P4       20       ETHY     H21      HGA2     0.090000        1.0080           0
      1207 P4       20       ETHY     H23      HGA2     0.090000        1.0080           0
      1208 P4       21       ETHY     C1       CG321   -0.180000       12.0110           0
      1209 P4       21       ETHY     H11      HGA2     0.090000        1.0080           0
      1210 P4       21       ETHY     H13      HGA2     0.090000        1.0080           0
      1211 P4       21       ETHY     C2       CG321   -0.180000       12.0110           0
      1212 P4       21       ETHY     H21      HGA2     0.090000        1.0080           0
      1213 P4       21       ETHY     H23      HGA2     0.090000        1.0080           0
      1214 P4       22       ETHY     C1       CG321   -0.180000       12.0110           0
      1215 P4       22       ETHY     H11      HGA2     0.090000        1.0080           0
      1216 P4       22       ETHY     H13      HGA2     0.090000        1.0080           0
      1217 P4       22       ETHY     C2       CG321   -0.180000       12.0110           0
      1218 P4       22       ETHY     H21      HGA2     0.090000        1.0080           0
      1219 P4       22       ETHY     H23      HGA2     0.090000        1.0080           0
      1220 P4       23       ETHY     C1       CG321   -0.180000       12.0110           0
      1221 P4       23       ETHY     H11      HGA2     0.090000        1.0080           0
      1222 P4       23       ETHY     H13      HGA2     0.090000        1.0080           0
      1223 P4       23       ETHY     C2       CG321   -0.180000       12.0110           0
      1224 P4       23       ETHY     H21      HGA2     0.090000        1.0080           0
      1225 P4       23       ETHY     H23      HGA2     0.090000        1.0080           0
      1226 P4       24       ETHY     C1       CG321   -0.180000       12.0110           0
      1227 P4       24       ETHY     H11      HGA2     0.090000        1.0080           0
      1228 P4       24       ETHY     H13      HGA2     0.090000        1.0080           0
      1229 P4       24       ETHY     C2       CG321   -0.180000       12.0110           0
      1230 P4       24       ETHY     H21      HGA2     0.090000        1.0080           0
      1231 P4       24       ETHY     H23      HGA2     0.090000        1.0080           0
      1232 P4       25       ETHY     C1       CG321   -0.180000       12.0110           0
      1233 P4       25       ETHY     H11      HGA2     0.090000        1.0080           0
      1234 P4       25       ETHY     H13      HGA2     0.090000        1.0080           0
      1235 P4       25       ETHY     C2       CG321   -0.180000       12.0110           0
      1236 P4       25       ETHY     H21      HGA2     0.090000        1.0080           0
      1237 P4       25       ETHY     H23      HGA2     0.090000        1.0080           0
      1238 P4       26       ETHY     C1       CG321   -0.180000       12.0110           0
      1239 P4       26       ETHY     H11      HGA2     0.090000        1.0080           0
      1240 P4       26       ETHY     H13      HGA2     0.090000        1.0080           0
      1241 P4       26       ETHY     C2       CG321   -0.180000       12.0110           0
      1242 P4       26       ETHY     H21      HGA2     0.090000        1.0080           0
      1243 P4       26       ETHY     H23      HGA2     0.090000        1.0080           0
      1244 P4       27       ETHY     C1       CG321   -0.180000       12.0110           0
      1245 P4       27       ETHY     H11      HGA2     0.090000        1.0080           0
      1246 P4       27       ETHY     H13      HGA2     0.090000        1.0080           0
      1247 P4       27       ETHY     C2       CG321   -0.180000       12.0110           0
      1248 P4       27       ETHY     H21      HGA2     0.090000        1.0080           0
      1249 P4       27       ETHY     H23      HGA2     0.090000        1.0080           0
      1250 P4       28       ETHY     C1       CG321   -0.180000       12.0110           0
      1251 P4       28       ETHY     H11      HGA2     0.090000        1.0080           0
      1252 P4       28       ETHY     H13      HGA2     0.090000        1.0080           0
      1253 P4       28       ETHY     C2       CG321   -0.180000       12.0110           0
      1254 P4       28       ETHY     H21      HGA2     0.090000        1.0080           0
      1255 P4       28       ETHY     H23      HGA2     0.090000        1.0080           0
      1256 P4       29       ETHY     C1       CG321   -0.180000       12.0110           0
      1257 P4       29       ETHY     H11      HGA2     0.090000        1.0080           0
      1258 P4       29       ETHY     H13      HGA2     0.090000        1.0080           0
      1259 P4       29       ETHY     C2       CG321   -0.180000       12.0110           0
      1260 P4       29       ETHY     H21      HGA2     0.090000        1.0080           0
      1261 P4       29       ETHY     H23      HGA2     0.090000        1.0080           0
      1262 P4       30       ETHY     C1       CG321   -0.180000       12.0110           0
      1263 P4       30       ETHY     H11      HGA2     0.090000        1.0080           0
      1264 P4       30       ETHY     H13      HGA2     0.090000        1.0080           0
      1265 P4       30       ETHY     C2       CG321   -0.180000       12.0110           0
      1266 P4       30       ETHY     H21      HGA2     0.090000        1.0080           0
      1267 P4       30       ETHY     H23      HGA2     0.090000        1.0080           0
      1268 P4       31       ETHY     C1       CG321   -0.180000       12.0110           0
      1269 P4       31       ETHY     H11      HGA2     0.090000        1.0080           0
      1270 P4       31       ETHY     H13      HGA2     0.090000        1.0080           0
      1271 P4       31       ETHY     C2       CG321   -0.180000       12.0110           0
      1272 P4       31       ETHY     H21      HGA2     0.090000        1.0080           0
      1273 P4       31       ETHY     H23      HGA2     0.090000        1.0080           0
      1274 P4       32       ETHY     C1       CG321   -0.180000       12.0110           0
      1275 P4       32       ETHY     H11      HGA2     0.090000        1.0080           0
      1276 P4       32       ETHY     H13      HGA2     0.090000        1.0080           0
      1277 P4       32       ETHY     C2       CG321   -0.180000       12.0110           0
      1278 P4       32       ETHY     H21      HGA2     0.090000        1.0080           0
      1279 P4       32       ETHY     H23      HGA2     0.090000        1.0080           0
      1280 P4       33       ETHY     C1       CG321   -0.180000       12.0110           0
      1281 P4       33       ETHY     H11      HGA2     0.090000        1.0080           0
      1282 P4       33       ETHY     H13      HGA2     0.090000        1.0080           0
      1283 P4       33       ETHY     C2       CG321   -0.180000       12.0110           0
      1284 P4       33       ETHY     H21      HGA2     0.090000        1.0080           0
      1285 P4       33       ETHY     H23      HGA2     0.090000        1.0080           0
      1286 P4       34       ETHY     C1       CG321   -0.180000       12.0110           0
      1287 P4       34       ETHY     H11      HGA2     0.090000        1.0080           0
      1288 P4       34       ETHY     H13      HGA2     0.090000        1.0080           0
      1289 P4       34       ETHY     C2       CG321   -0.180000       12.0110           0
      1290 P4       34       ETHY     H21      HGA2     0.090000        1.0080           0
      1291 P4       34       ETHY     H23      HGA2     0.090000        1.0080           0
      1292 P4       35       ETHY     C1       CG321   -0.180000       12.0110           0
      1293 P4       35       ETHY     H11      HGA2     0.090000        1.0080           0
      1294 P4       35       ETHY     H13      HGA2     0.090000        1.0080           0
      1295 P4       35       ETHY     C2       CG321   -0.180000       12.0110           0
      1296 P4       35       ETHY     H21      HGA2     0.090000        1.0080           0
      1297 P4       35       ETHY     H23      HGA2     0.090000        1.0080           0
      1298 P4       36       ETHY     C1       CG321   -0.180000       12.0110           0
      1299 P4       36       ETHY     H11      HGA2     0.090000        1.0080           0
      1300 P4       36       ETHY     H13      HGA2     0.090000        1.0080           0
      1301 P4       36       ETHY     C2       CG321   -0.180000       12.0110           0
      1302 P4       36       ETHY     H21      HGA2     0.090000        1.0080           0
      1303 P4       36       ETHY     H23      HGA2     0.090000        1.0080           0
      1304 P4       37       ETHY     C1       CG321   -0.180000       12.0110           0
      1305 P4       37       ETHY     H11      HGA2     0.090000        1.0080           0
      1306 P4       37       ETHY     H13      HGA2     0.090000        1.0080           0
      1307 P4       37       ETHY     C2       CG321   -0.180000       12.0110           0
      1308 P4       37       ETHY     H21      HGA2     0.090000        1.0080           0
      1309 P4       37       ETHY     H23      HGA2     0.090000        1.0080           0
      1310 P4       38       ETHY     C1       CG321   -0.180000       12.0110           0
      1311 P4       38       ETHY     H11      HGA2     0.090000        1.0080           0
      1312 P4       38       ETHY     H13      HGA2     0.090000        1.0080           0
      1313 P4       38       ETHY     C2       CG321   -0.180000       12.0110           0
      1314 P4       38       ETHY     H21      HGA2     0.090000        1.0080           0
      1315 P4       38       ETHY     H23      HGA2     0.090000        1.0080           0
      1316 P4       39       ETHY     C1       CG321   -0.180000       12.0110           0
      1317 P4       39       ETHY     H11      HGA2     0.090000        1.0080           0
      1318 P4       39       ETHY     H13      HGA2     0.090000        1.0080           0
      1319 P4       39       ETHY     C2       CG321   -0.180000       12.0110           0
      1320 P4       39       ETHY     H21      HGA2     0.090000        1.0080           0
      1321 P4       39       ETHY     H23      HGA2     0.090000        1.0080           0
      1322 P4       40       ETHY     C1       CG321   -0.180000       12.0110           0
      1323 P4       40       ETHY     H11      HGA2     0.090000        1.0080           0
      1324 P4       40       ETHY     H13      HGA2     0.090000        1.0080           0
      1325 P4       40       ETHY     C2       CG321   -0.180000       12.0110           0
      1326 P4       40       ETHY     H21      HGA2     0.090000        1.0080           0
      1327 P4       40       ETHY     H23      HGA2     0.090000        1.0080           0
      1328 P4       41       ETHY     C1       CG321   -0.180000       12.0110           0
      1329 P4       41       ETHY     H11      HGA2     0.090000        1.0080           0
      1330 P4       41       ETHY     H13      HGA2     0.090000        1.0080           0
      1331 P4       41       ETHY     C2       CG321   -0.180000       12.0110           0
      1332 P4       41       ETHY     H21      HGA2     0.090000        1.0080           0
      1333 P4       41       ETHY     H23      HGA2     0.090000        1.0080           0
      1334 P4       42       ETHY     C1       CG321   -0.180000       12.0110           0
      1335 P4       42       ETHY     H11      HGA2     0.090000        1.0080           0
      1336 P4       42       ETHY     H13      HGA2     0.090000        1.0080           0
      1337 P4       42       ETHY     C2       CG321   -0.180000       12.0110           0
      1338 P4       42       ETHY     H21      HGA2     0.090000        1.0080           0
      1339 P4       42       ETHY     H23      HGA2     0.090000        1.0080           0
      1340 P4       43       ETHY     C1       CG321   -0.180000       12.0110           0
      1341 P4       43       ETHY     H11      HGA2     0.090000        1.0080           0
      1342 P4       43       ETHY     H13      HGA2     0.090000        1.0080           0
      1343 P4       43       ETHY     C2       CG321   -0.180000       12.0110           0
      1344 P4       43       ETHY     H21      HGA2     0.090000        1.0080           0
      1345 P4       43       ETHY     H23      HGA2     0.090000        1.0080           0
      1346 P4       44       ETHY     C1       CG321   -0.180000       12.0110           0
      1347 P4       44       ETHY     H11      HGA2     0.090000        1.0080           0
      1348 P4       44       ETHY     H13      HGA2     0.090000        1.0080           0
      1349 P4       44       ETHY     C2       CG321   -0.180000       12.0110           0
      1350 P4       44       ETHY     H21      HGA2     0.090000        1.0080           0
      1351 P4       44       ETHY     H23      HGA2     0.090000        1.0080           0
      1352 P4       45       ETHY     C1       CG321   -0.180000       12.0110           0
      1353 P4       45       ETHY     H11      HGA2     0.090000        1.0080           0
      1354 P4       45       ETHY     H13      HGA2     0.090000        1.0080           0
      1355 P4       45       ETHY     C2       CG321   -0.180000       12.0110           0
      1356 P4       45       ETHY     H21      HGA2     0.090000        1.0080           0
      1357 P4       45       ETHY     H23      HGA2     0.090000        1.0080           0
      1358 P4       46       ETHY     C1       CG321   -0.180000       12.0110           0
      1359 P4       46       ETHY     H11      HGA2     0.090000        1.0080           0
      1360 P4       46       ETHY     H13      HGA2     0.090000        1.0080           0
      1361 P4       46       ETHY     C2       CG321   -0.180000       12.0110           0
      1362 P4       46       ETHY     H21      HGA2     0.090000        1.0080           0
      1363 P4       46       ETHY     H23      HGA2     0.090000        1.0080           0
      1364 P4       47       ETHY     C1       CG321   -0.180000       12.0110           0
      1365 P4       47       ETHY     H11      HGA2     0.090000        1.0080           0
      1366 P4       47       ETHY     H13      HGA2     0.090000        1.0080           0
      1367 P4       47       ETHY     C2       CG321   -0.180000       12.0110           0
      1368 P4       47       ETHY     H21      HGA2     0.090000        1.0080           0
      1369 P4       47       ETHY     H23      HGA2     0.090000        1.0080           0
      1370 P4       48       ETHY     C1       CG321   -0.180000       12.0110           0
      1371 P4       48       ETHY     H11      HGA2     0.090000        1.0080           0
      1372 P4       48       ETHY     H13      HGA2     0.090000        1.0080           0
      1373 P4       48       ETHY     C2       CG321   -0.180000       12.0110           0
      1374 P4       48       ETHY     H21      HGA2     0.090000        1.0080           0
      1375 P4       48       ETHY     H23      HGA2     0.090000        1.0080           0
      1376 P4       49       ETHY     C1       CG321   -0.180000       12.0110           0
      1377 P4       49       ETHY     H11      HGA2     0.090000        1.0080           0
      1378 P4       49       ETHY     H13      HGA2     0.090000        1.0080           0
      1379 P4       49       ETHY     C2       CG321   -0.180000       12.0110           0
      1380 P4       49       ETHY     H21      HGA2     0.090000        1.0080           0
      1381 P4       49       ETHY     H23      HGA2     0.090000        1.0080           0
      1382 P4       50       ETHY     C1       CG321   -0.180000       12.0110           0
      1383 P4       50       ETHY     H11      HGA2     0.090000        1.0080           0
      1384 P4       50       ETHY     H13      HGA2     0.090000        1.0080           0
      1385 P4       50       ETHY     C2       CG321   -0.180000       12.0110           0
      1386 P4       50       ETHY     H21      HGA2     0.090000        1.0080           0
      1387 P4       50       ETHY     H23      HGA2     0.090000        1.0080           0
      1388 P4       51       ETHY     C1       CG321   -0.180000       12.0110           0
      1389 P4       51       ETHY     H11      HGA2     0.090000        1.0080           0
      1390 P4       51       ETHY     H13      HGA2     0.090000        1.0080           0
      1391 P4       51       ETHY     C2       CG321   -0.180000       12.0110           0
      1392 P4       51       ETHY     H21      HGA2     0.090000        1.0080           0
      1393 P4       51       ETHY     H23      HGA2     0.090000        1.0080           0
      1394 P4       52       ETHY     C1       CG321   -0.180000       12.0110           0
      1395 P4       52       ETHY     H11      HGA2     0.090000        1.0080           0
      1396 P4       52       ETHY     H13      HGA2     0.090000        1.0080           0
      1397 P4       52       ETHY     C2       CG321   -0.180000       12.0110           0
      1398 P4       52       ETHY     H21      HGA2     0.090000        1.0080           0
      1399 P4       52       ETHY     H23      HGA2     0.090000        1.0080           0
      1400 P4       53       ETHY     C1       CG321   -0.180000       12.0110           0
      1401 P4       53       ETHY     H11      HGA2     0.090000        1.0080           0
      1402 P4       53       ETHY     H13      HGA2     0.090000        1.0080           0
      1403 P4       53       ETHY     C2       CG321   -0.180000       12.0110           0
      1404 P4       53       ETHY     H21      HGA2     0.090000        1.0080           0
      1405 P4       53       ETHY     H23      HGA2     0.090000        1.0080           0
      1406 P4       54       ETHY     C1       CG321   -0.180000       12.0110           0
      1407 P4       54       ETHY     H11      HGA2     0.090000        1.0080           0
      1408 P4       54       ETHY     H13      HGA2     0.090000        1.0080           0
      1409 P4       54       ETHY     C2       CG321   -0.180000       12.0110           0
      1410 P4       54       ETHY     H21      HGA2     0.090000        1.0080           0
      1411 P4       54       ETHY     H23      HGA2     0.090000        1.0080           0
      1412 P4       55       ETHY     C1       CG321   -0.180000       12.0110           0
      1413 P4       55       ETHY     H11      HGA2     0.090000        1.0080           0
      1414 P4       55       ETHY     H13      HGA2     0.090000        1.0080           0
      1415 P4       55       ETHY     C2       CG321   -0.180000       12.0110           0
      1416 P4       55       ETHY     H21      HGA2     0.090000        1.0080           0
      1417 P4       55       ETHY     H23      HGA2     0.090000        1.0080           0
      1418 P4       56       ETHY     C1       CG321   -0.180000       12.0110           0
      1419 P4       56       ETHY     H11      HGA2     0.090000        1.0080           0
      1420 P4       56       ETHY     H13      HGA2     0.090000        1.0080           0
      1421 P4       56       ETHY     C2       CG321   -0.180000       12.0110           0
      1422 P4       56       ETHY     H21      HGA2     0.090000        1.0080           0
      1423 P4       56       ETHY     H23      HGA2     0.090000        1.0080           0
      1424 P4       57       ETHY     C1       CG321   -0.180000       12.0110           0
      1425 P4       57       ETHY     H11      HGA2     0.090000        1.0080           0
      1426 P4       57       ETHY     H13      HGA2     0.090000        1.0080           0
      1427 P4       57       ETHY     C2       CG321   -0.180000       12.0110           0
      1428 P4       57       ETHY     H21      HGA2     0.090000        1.0080           0
      1429 P4       57       ETHY     H23      HGA2     0.090000        1.0080           0
      1430 P4       58       ETHY     C1       CG321   -0.180000       12.0110           0
      1431 P4       58       ETHY     H11      HGA2     0.090000        1.0080           0
      1432 P4       58       ETHY     H13      HGA2     0.090000        1.0080           0
      1433 P4       58       ETHY     C2       CG321   -0.180000       12.0110           0
      1434 P4       58       ETHY     H21      HGA2     0.090000        1.0080           0
      1435 P4       58       ETHY     H23      HGA2     0.090000        1.0080           0
      1436 P4       59       ETHY     C1       CG321   -0.180000       12.0110           0
      1437 P4       59       ETHY     H11      HGA2     0.090000        1.0080           0
      1438 P4       59       ETHY     H13      HGA2     0.090000        1.0080           0
      1439 P4       59       ETHY     C2       CG321   -0.180000       12.0110           0
      1440 P4       59       ETHY     H21      HGA2     0.090000        1.0080           0
      1441 P4       59       ETHY     H23      HGA2     0.090000        1.0080           0
      1442 P4       60       ETHY     C1       CG321   -0.180000       12.0110           0
      1443 P4       60       ETHY     H11      HGA2     0.090000        1.0080           0
      1444 P4       60       ETHY     H13      HGA2     0.090000        1.0080           0
      1445 P4       60       ETHY     C2       CG331   -0.270000       12.0110           0
      1446 P4       60       ETHY     H22      HGA3     0.090000        1.0080           0
      1447 P4       60       ETHY     H21      HGA3     0.090000        1.0080           0
      1448 P4       60       ETHY     H23      HGA3     0.090000        1.0080           0
      1449 P5       1        ETHY     C1       CG331   -0.270000       12.0110           0
      1450 P5       1        ETHY     H11      HGA3     0.090000        1.0080           0
      1451 P5       1        ETHY     H12      HGA3     0.090000        1.0080           0
      1452 P5       1        ETHY     H13      HGA3     0.090000        1.0080           0
      1453 P5       1        ETHY     C2       CG321   -0.180000       12.0110           0
      1454 P5       1        ETHY     H21      HGA2     0.090000        1.0080           0
      1455 P5       1        ETHY     H23      HGA2     0.090000        1.0080           0
      1456 P5       2        ETHY     C1       CG321   -0.180000       12.0110           0
      1457 P5       2        ETHY     H11      HGA2     0.090000        1.0080           0
      1458 P5       2        ETHY     H13      HGA2     0.090000        1.0080           0
      1459 P5       2        ETHY     C2       CG321   -0.180000       12.0110           0
      1460 P5       2        ETHY     H21      HGA2     0.090000        1.0080           0
      1461 P5       2        ETHY     H23      HGA2     0.090000        1.0080           0
      1462 P5       3        ETHY     C1       CG321   -0.180000       12.0110           0
      1463 P5       3        ETHY     H11      HGA2     0.090000        1.0080           0
      1464 P5       3        ETHY     H13      HGA2     0.090000        1.0080           0
      1465 P5       3        ETHY     C2       CG321   -0.180000       12.0110           0
      1466 P5       3        ETHY     H21      HGA2     0.090000        1.0080           0
      1467 P5       3        ETHY     H23      HGA2     0.090000        1.0080           0
      1468 P5       4        ETHY     C1       CG321   -0.180000       12.0110           0
      1469 P5       4        ETHY     H11      HGA2     0.090000        1.0080           0
      1470 P5       4        ETHY     H13      HGA2     0.090000        1.0080           0
      1471 P5       4        ETHY     C2       CG321   -0.180000       12.0110           0
      1472 P5       4        ETHY     H21      HGA2     0.090000        1.0080           0
      1473 P5       4        ETHY     H23      HGA2     0.090000        1.0080           0
      1474 P5       5        ETHY     C1       CG321   -0.180000       12.0110           0
      1475 P5       5        ETHY     H11      HGA2     0.090000        1.0080           0
      1476 P5       5        ETHY     H13      HGA2     0.090000        1.0080           0
      1477 P5       5        ETHY     C2       CG321   -0.180000       12.0110           0
      1478 P5       5        ETHY     H21      HGA2     0.090000        1.0080           0
      1479 P5       5        ETHY     H23      HGA2     0.090000        1.0080           0
      1480 P5       6        ETHY     C1       CG321   -0.180000       12.0110           0
      1481 P5       6        ETHY     H11      HGA2     0.090000        1.0080           0
      1482 P5       6        ETHY     H13      HGA2     0.090000        1.0080           0
      1483 P5       6        ETHY     C2       CG321   -0.180000       12.0110           0
      1484 P5       6        ETHY     H21      HGA2     0.090000        1.0080           0
      1485 P5       6        ETHY     H23      HGA2     0.090000        1.0080           0
      1486 P5       7        ETHY     C1       CG321   -0.180000       12.0110           0
      1487 P5       7        ETHY     H11      HGA2     0.090000        1.0080           0
      1488 P5       7        ETHY     H13      HGA2     0.090000        1.0080           0
      1489 P5       7        ETHY     C2       CG321   -0.180000       12.0110           0
      1490 P5       7        ETHY     H21      HGA2     0.090000        1.0080           0
      1491 P5       7        ETHY     H23      HGA2     0.090000        1.0080           0
      1492 P5       8        ETHY     C1       CG321   -0.180000       12.0110           0
      1493 P5       8        ETHY     H11      HGA2     0.090000        1.0080           0
      1494 P5       8        ETHY     H13      HGA2     0.090000        1.0080           0
      1495 P5       8        ETHY     C2       CG321   -0.180000       12.0110           0
      1496 P5       8        ETHY     H21      HGA2     0.090000        1.0080           0
      1497 P5       8        ETHY     H23      HGA2     0.090000        1.0080           0
      1498 P5       9        ETHY     C1       CG321   -0.180000       12.0110           0
      1499 P5       9        ETHY     H11      HGA2     0.090000        1.0080           0
      1500 P5       9        ETHY     H13      HGA2     0.090000        1.0080           0
      1501 P5       9        ETHY     C2       CG321   -0.180000       12.0110           0
      1502 P5       9        ETHY     H21      HGA2     0.090000        1.0080           0
      1503 P5       9        ETHY     H23      HGA2     0.090000        1.0080           0
      1504 P5       10       ETHY     C1       CG321   -0.180000       12.0110           0
      1505 P5       10       ETHY     H11      HGA2     0.090000        1.0080           0
      1506 P5       10       ETHY     H13      HGA2     0.090000        1.0080           0
      1507 P5       10       ETHY     C2       CG321   -0.180000       12.0110           0
      1508 P5       10       ETHY     H21      HGA2     0.090000        1.0080           0
      1509 P5       10       ETHY     H23      HGA2     0.090000        1.0080           0
      1510 P5       11       ETHY     C1       CG321   -0.180000       12.0110           0
      1511 P5       11       ETHY     H11      HGA2     0.090000        1.0080           0
      1512 P5       11       ETHY     H13      HGA2     0.090000        1.0080           0
      1513 P5       11       ETHY     C2       CG321   -0.180000       12.0110           0
      1514 P5       11       ETHY     H21      HGA2     0.090000        1.0080           0
      1515 P5       11       ETHY     H23      HGA2     0.090000        1.0080           0
      1516 P5       12       ETHY     C1       CG321   -0.180000       12.0110           0
      1517 P5       12       ETHY     H11      HGA2     0.090000        1.0080           0
      1518 P5       12       ETHY     H13      HGA2     0.090000        1.0080           0
      1519 P5       12       ETHY     C2       CG321   -0.180000       12.0110           0
      1520 P5       12       ETHY     H21      HGA2     0.090000        1.0080           0
      1521 P5       12       ETHY     H23      HGA2     0.090000        1.0080           0
      1522 P5       13       ETHY     C1       CG321   -0.180000       12.0110           0
      1523 P5       13       ETHY     H11      HGA2     0.090000        1.0080           0
      1524 P5       13       ETHY     H13      HGA2     0.090000        1.0080           0
      1525 P5       13       ETHY     C2       CG321   -0.180000       12.0110           0
      1526 P5       13       ETHY     H21      HGA2     0.090000        1.0080           0
      1527 P5       13       ETHY     H23      HGA2     0.090000        1.0080           0
      1528 P5       14       ETHY     C1       CG321   -0.180000       12.0110           0
      1529 P5       14       ETHY     H11      HGA2     0.090000        1.0080           0
      1530 P5       14       ETHY     H13      HGA2     0.090000        1.0080           0
      1531 P5       14       ETHY     C2       CG321   -0.180000       12.0110           0
      1532 P5       14       ETHY     H21      HGA2     0.090000        1.0080           0
      1533 P5       14       ETHY     H23      HGA2     0.090000        1.0080           0
      1534 P5       15       ETHY     C1       CG321   -0.180000       12.0110           0
      1535 P5       15       ETHY     H11      HGA2     0.090000        1.0080           0
      1536 P5       15       ETHY     H13      HGA2     0.090000        1.0080           0
      1537 P5       15       ETHY     C2       CG321   -0.180000       12.0110           0
      1538 P5       15       ETHY     H21      HGA2     0.090000        1.0080           0
      1539 P5       15       ETHY     H23      HGA2     0.090000        1.0080           0
      1540 P5       16       ETHY     C1       CG321   -0.180000       12.0110           0
      1541 P5       16       ETHY     H11      HGA2     0.090000        1.0080           0
      1542 P5       16       ETHY     H13      HGA2     0.090000        1.0080           0
      1543 P5       16       ETHY     C2       CG321   -0.180000       12.0110           0
      1544 P5       16       ETHY     H21      HGA2     0.090000        1.0080           0
      1545 P5       16       ETHY     H23      HGA2     0.090000        1.0080           0
      1546 P5       17       ETHY     C1       CG321   -0.180000       12.0110           0
      1547 P5       17       ETHY     H11      HGA2     0.090000        1.0080           0
      1548 P5       17       ETHY     H13      HGA2     0.090000        1.0080           0
      1549 P5       17       ETHY     C2       CG321   -0.180000       12.0110           0
      1550 P5       17       ETHY     H21      HGA2     0.090000        1.0080           0
      1551 P5       17       ETHY     H23      HGA2     0.090000        1.0080           0
      1552 P5       18       ETHY     C1       CG321   -0.180000       12.0110           0
      1553 P5       18       ETHY     H11      HGA2     0.090000        1.0080           0
      1554 P5       18       ETHY     H13      HGA2     0.090000        1.0080           0
      1555 P5       18       ETHY     C2       CG321   -0.180000       12.0110           0
      1556 P5       18       ETHY     H21      HGA2     0.090000        1.0080           0
      1557 P5       18       ETHY     H23      HGA2     0.090000        1.0080           0
      1558 P5       19       ETHY     C1       CG321   -0.180000       12.0110           0
      1559 P5       19       ETHY     H11      HGA2     0.090000        1.0080           0
      1560 P5       19       ETHY     H13      HGA2     0.090000        1.0080           0
      1561 P5       19       ETHY     C2       CG321   -0.180000       12.0110           0
      1562 P5       19       ETHY     H21      HGA2     0.090000        1.0080           0
      1563 P5       19       ETHY     H23      HGA2     0.090000        1.0080           0
      1564 P5       20       ETHY     C1       CG321   -0.180000       12.0110           0
      1565 P5       20       ETHY     H11      HGA2     0.090000        1.0080           0
      1566 P5       20       ETHY     H13      HGA2     0.090000        1.0080           0
      1567 P5       20       ETHY     C2       CG321   -0.180000       12.0110           0
      1568 P5       20       ETHY     H21      HGA2     0.090000        1.0080           0
      1569 P5       20       ETHY     H23      HGA2     0.090000        1.0080           0
      1570 P5       21       ETHY     C1       CG321   -0.180000       12.0110           0
      1571 P5       21       ETHY     H11      HGA2     0.090000        1.0080           0
      1572 P5       21       ETHY     H13      HGA2     0.090000        1.0080           0
      1573 P5       21       ETHY     C2       CG321   -0.180000       12.0110           0
      1574 P5       21       ETHY     H21      HGA2     0.090000        1.0080           0
      1575 P5       21       ETHY     H23      HGA2     0.090000        1.0080           0
      1576 P5       22       ETHY     C1       CG321   -0.180000       12.0110           0
      1577 P5       22       ETHY     H11      HGA2     0.090000        1.0080           0
      1578 P5       22       ETHY     H13      HGA2     0.090000        1.0080           0
      1579 P5       22       ETHY     C2       CG321   -0.180000       12.0110           0
      1580 P5       22       ETHY     H21      HGA2     0.090000        1.0080           0
      1581 P5       22       ETHY     H23      HGA2     0.090000        1.0080           0
      1582 P5       23       ETHY     C1       CG321   -0.180000       12.0110           0
      1583 P5       23       ETHY     H11      HGA2     0.090000        1.0080           0
      1584 P5       23       ETHY     H13      HGA2     0.090000        1.0080           0
      1585 P5       23       ETHY     C2       CG321   -0.180000       12.0110           0
      1586 P5       23       ETHY     H21      HGA2     0.090000        1.0080           0
      1587 P5       23       ETHY     H23      HGA2     0.090000        1.0080           0
      1588 P5       24       ETHY     C1       CG321   -0.180000       12.0110           0
      1589 P5       24       ETHY     H11      HGA2     0.090000        1.0080           0
      1590 P5       24       ETHY     H13      HGA2     0.090000        1.0080           0
      1591 P5       24       ETHY     C2       CG321   -0.180000       12.0110           0
      1592 P5       24       ETHY     H21      HGA2     0.090000        1.0080           0
      1593 P5       24       ETHY     H23      HGA2     0.090000        1.0080           0
      1594 P5       25       ETHY     C1       CG321   -0.180000       12.0110           0
      1595 P5       25       ETHY     H11      HGA2     0.090000        1.0080           0
      1596 P5       25       ETHY     H13      HGA2     0.090000        1.0080           0
      1597 P5       25       ETHY     C2       CG321   -0.180000       12.0110           0
      1598 P5       25       ETHY     H21      HGA2     0.090000        1.0080           0
      1599 P5       25       ETHY     H23      HGA2     0.090000        1.0080           0
      1600 P5       26       ETHY     C1       CG321   -0.180000       12.0110           0
      1601 P5       26       ETHY     H11      HGA2     0.090000        1.0080           0
      1602 P5       26       ETHY     H13      HGA2     0.090000        1.0080           0
      1603 P5       26       ETHY     C2       CG321   -0.180000       12.0110           0
      1604 P5       26       ETHY     H21      HGA2     0.090000        1.0080           0
      1605 P5       26       ETHY     H23      HGA2     0.090000        1.0080           0
      1606 P5       27       ETHY     C1       CG321   -0.180000       12.0110           0
      1607 P5       27       ETHY     H11      HGA2     0.090000        1.0080           0
      1608 P5       27       ETHY     H13      HGA2     0.090000        1.0080           0
      1609 P5       27       ETHY     C2       CG321   -0.180000       12.0110           0
      1610 P5       27       ETHY     H21      HGA2     0.090000        1.0080           0
      1611 P5       27       ETHY     H23      HGA2     0.090000        1.0080           0
      1612 P5       28       ETHY     C1       CG321   -0.180000       12.0110           0
      1613 P5       28       ETHY     H11      HGA2     0.090000        1.0080           0
      1614 P5       28       ETHY     H13      HGA2     0.090000        1.0080           0
      1615 P5       28       ETHY     C2       CG321   -0.180000       12.0110           0
      1616 P5       28       ETHY     H21      HGA2     0.090000        1.0080           0
      1617 P5       28       ETHY     H23      HGA2     0.090000        1.0080           0
      1618 P5       29       ETHY     C1       CG321   -0.180000       12.0110           0
      1619 P5       29       ETHY     H11      HGA2     0.090000        1.0080           0
      1620 P5       29       ETHY     H13      HGA2     0.090000        1.0080           0
      1621 P5       29       ETHY     C2       CG321   -0.180000       12.0110           0
      1622 P5       29       ETHY     H21      HGA2     0.090000        1.0080           0
      1623 P5       29       ETHY     H23      HGA2     0.090000        1.0080           0
      1624 P5       30       ETHY     C1       CG321   -0.180000       12.0110           0
      1625 P5       30       ETHY     H11      HGA2     0.090000        1.0080           0
      1626 P5       30       ETHY     H13      HGA2     0.090000        1.0080           0
      1627 P5       30       ETHY     C2       CG321   -0.180000       12.0110           0
      1628 P5       30       ETHY     H21      HGA2     0.090000        1.0080           0
      1629 P5       30       ETHY     H23      HGA2     0.090000        1.0080           0
      1630 P5       31       ETHY     C1       CG321   -0.180000       12.0110           0
      1631 P5       31       ETHY     H11      HGA2     0.090000        1.0080           0
      1632 P5       31       ETHY     H13      HGA2     0.090000        1.0080           0
      1633 P5       31       ETHY     C2       CG321   -0.180000       12.0110           0
      1634 P5       31       ETHY     H21      HGA2     0.090000        1.0080           0
      1635 P5       31       ETHY     H23      HGA2     0.090000        1.0080           0
      1636 P5       32       ETHY     C1       CG321   -0.180000       12.0110           0
      1637 P5       32       ETHY     H11      HGA2     0.090000        1.0080           0
      1638 P5       32       ETHY     H13      HGA2     0.090000        1.0080           0
      1639 P5       32       ETHY     C2       CG321   -0.180000       12.0110           0
      1640 P5       32       ETHY     H21      HGA2     0.090000        1.0080           0
      1641 P5       32       ETHY     H23      HGA2     0.090000        1.0080           0
      1642 P5       33       ETHY     C1       CG321   -0.180000       12.0110           0
      1643 P5       33       ETHY     H11      HGA2     0.090000        1.0080           0
      1644 P5       33       ETHY     H13      HGA2     0.090000        1.0080           0
      1645 P5       33       ETHY     C2       CG321   -0.180000       12.0110           0
      1646 P5       33       ETHY     H21      HGA2     0.090000        1.0080           0
      1647 P5       33       ETHY     H23      HGA2     0.090000        1.0080           0
      1648 P5       34       ETHY     C1       CG321   -0.180000       12.0110           0
      1649 P5       34       ETHY     H11      HGA2     0.090000        1.0080           0
      1650 P5       34       ETHY     H13      HGA2     0.090000        1.0080           0
      1651 P5       34       ETHY     C2       CG321   -0.180000       12.0110           0
      1652 P5       34       ETHY     H21      HGA2     0.090000        1.0080           0
      1653 P5       34       ETHY     H23      HGA2     0.090000        1.0080           0
      1654 P5       35       ETHY     C1       CG321   -0.180000       12.0110           0
      1655 P5       35       ETHY     H11      HGA2     0.090000        1.0080           0
      1656 P5       35       ETHY     H13      HGA2     0.090000        1.0080           0
      1657 P5       35       ETHY     C2       CG321   -0.180000       12.0110           0
      1658 P5       35       ETHY     H21      HGA2     0.090000        1.0080           0
      1659 P5       35       ETHY     H23      HGA2     0.090000        1.0080           0
      1660 P5       36       ETHY     C1       CG321   -0.180000       12.0110           0
      1661 P5       36       ETHY     H11      HGA2     0.090000        1.0080           0
      1662 P5       36       ETHY     H13      HGA2     0.090000        1.0080           0
      1663 P5       36       ETHY     C2       CG321   -0.180000       12.0110           0
      1664 P5       36       ETHY     H21      HGA2     0.090000        1.0080           0
      1665 P5       36       ETHY     H23      HGA2     0.090000        1.0080           0
      1666 P5       37       ETHY     C1       CG321   -0.180000       12.0110           0
      1667 P5       37       ETHY     H11      HGA2     0.090000        1.0080           0
      1668 P5       37       ETHY     H13      HGA2     0.090000        1.0080           0
      1669 P5       37       ETHY     C2       CG321   -0.180000       12.0110           0
      1670 P5       37       ETHY     H21      HGA2     0.090000        1.0080           0
      1671 P5       37       ETHY     H23      HGA2     0.090000        1.0080           0
      1672 P5       38       ETHY     C1       CG321   -0.180000       12.0110           0
      1673 P5       38       ETHY     H11      HGA2     0.090000        1.0080           0
      1674 P5       38       ETHY     H13      HGA2     0.090000        1.0080           0
      1675 P5       38       ETHY     C2       CG321   -0.180000       12.0110           0
      1676 P5       38       ETHY     H21      HGA2     0.090000        1.0080           0
      1677 P5       38       ETHY     H23      HGA2     0.090000        1.0080           0
      1678 P5       39       ETHY     C1       CG321   -0.180000       12.0110           0
      1679 P5       39       ETHY     H11      HGA2     0.090000        1.0080           0
      1680 P5       39       ETHY     H13      HGA2     0.090000        1.0080           0
      1681 P5       39       ETHY     C2       CG321   -0.180000       12.0110           0
      1682 P5       39       ETHY     H21      HGA2     0.090000        1.0080           0
      1683 P5       39       ETHY     H23      HGA2     0.090000        1.0080           0
      1684 P5       40       ETHY     C1       CG321   -0.180000       12.0110           0
      1685 P5       40       ETHY     H11      HGA2     0.090000        1.0080           0
      1686 P5       40       ETHY     H13      HGA2     0.090000        1.0080           0
      1687 P5       40       ETHY     C2       CG321   -0.180000       12.0110           0
      1688 P5       40       ETHY     H21      HGA2     0.090000        1.0080           0
      1689 P5       40       ETHY     H23      HGA2     0.090000        1.0080           0
      1690 P5       41       ETHY     C1       CG321   -0.180000       12.0110           0
      1691 P5       41       ETHY     H11      HGA2     0.090000        1.0080           0
      1692 P5       41       ETHY     H13      HGA2     0.090000        1.0080           0
      1693 P5       41       ETHY     C2       CG321   -0.180000       12.0110           0
      1694 P5       41       ETHY     H21      HGA2     0.090000        1.0080           0
      1695 P5       41       ETHY     H23      HGA2     0.090000        1.0080           0
      1696 P5       42       ETHY     C1       CG321   -0.180000       12.0110           0
      1697 P5       42       ETHY     H11      HGA2     0.090000        1.0080           0
      1698 P5       42       ETHY     H13      HGA2     0.090000        1.0080           0
      1699 P5       42       ETHY     C2       CG321   -0.180000       12.0110           0
      1700 P5       42       ETHY     H21      HGA2     0.090000        1.0080           0
      1701 P5       42       ETHY     H23      HGA2     0.090000        1.0080           0
      1702 P5       43       ETHY     C1       CG321   -0.180000       12.0110           0
      1703 P5       43       ETHY     H11      HGA2     0.090000        1.0080           0
      1704 P5       43       ETHY     H13      HGA2     0.090000        1.0080           0
      1705 P5       43       ETHY     C2       CG321   -0.180000       12.0110           0
      1706 P5       43       ETHY     H21      HGA2     0.090000        1.0080           0
      1707 P5       43       ETHY     H23      HGA2     0.090000        1.0080           0
      1708 P5       44       ETHY     C1       CG321   -0.180000       12.0110           0
      1709 P5       44       ETHY     H11      HGA2     0.090000        1.0080           0
      1710 P5       44       ETHY     H13      HGA2     0.090000        1.0080           0
      1711 P5       44       ETHY     C2       CG321   -0.180000       12.0110           0
      1712 P5       44       ETHY     H21      HGA2     0.090000        1.0080           0
      1713 P5       44       ETHY     H23      HGA2     0.090000        1.0080           0
      1714 P5       45       ETHY     C1       CG321   -0.180000       12.0110           0
      1715 P5       45       ETHY     H11      HGA2     0.090000        1.0080           0
      1716 P5       45       ETHY     H13      HGA2     0.090000        1.0080           0
      1717 P5       45       ETHY     C2       CG321   -0.180000       12.0110           0
      1718 P5       45       ETHY     H21      HGA2     0.090000        1.0080           0
      1719 P5       45       ETHY     H23      HGA2     0.090000        1.0080           0
      1720 P5       46       ETHY     C1       CG321   -0.180000       12.0110           0
      1721 P5       46       ETHY     H11      HGA2     0.090000        1.0080           0
      1722 P5       46       ETHY     H13      HGA2     0.090000        1.0080           0
      1723 P5       46       ETHY     C2       CG321   -0.180000       12.0110           0
      1724 P5       46       ETHY     H21      HGA2     0.090000        1.0080           0
      1725 P5       46       ETHY     H23      HGA2     0.090000        1.0080           0
      1726 P5       47       ETHY     C1       CG321   -0.180000       12.0110           0
      1727 P5       47       ETHY     H11      HGA2     0.090000        1.0080           0
      1728 P5       47       ETHY     H13      HGA2     0.090000        1.0080           0
      1729 P5       47       ETHY     C2       CG321   -0.180000       12.0110           0
      1730 P5       47       ETHY     H21      HGA2     0.090000        1.0080           0
      1731 P5       47       ETHY     H23      HGA2     0.090000        1.0080           0
      1732 P5       48       ETHY     C1       CG321   -0.180000       12.0110           0
      1733 P5       48       ETHY     H11      HGA2     0.090000        1.0080           0
      1734 P5       48       ETHY     H13      HGA2     0.090000        1.0080           0
      1735 P5       48       ETHY     C2       CG321   -0.180000       12.0110           0
      1736 P5       48       ETHY     H21      HGA2     0.090000        1.0080           0
      1737 P5       48       ETHY     H23      HGA2     0.090000        1.0080           0
      1738 P5       49       ETHY     C1       CG321   -0.180000       12.0110           0
      1739 P5       49       ETHY     H11      HGA2     0.090000        1.0080           0
      1740 P5       49       ETHY     H13      HGA2     0.090000        1.0080           0
      1741 P5       49       ETHY     C2       CG321   -0.180000       12.0110           0
      1742 P5       49       ETHY     H21      HGA2     0.090000        1.0080           0
      1743 P5       49       ETHY     H23      HGA2     0.090000        1.0080           0
      1744 P5       50       ETHY     C1       CG321   -0.180000       12.0110           0
      1745 P5       50       ETHY     H11      HGA2     0.090000        1.0080           0
      1746 P5       50       ETHY     H13      HGA2     0.090000        1.0080           0
      1747 P5       50       ETHY     C2       CG321   -0.180000       12.0110           0
      1748 P5       50       ETHY     H21      HGA2     0.090000        1.0080           0
      1749 P5       50       ETHY     H23      HGA2     0.090000        1.0080           0
      1750 P5       51       ETHY     C1       CG321   -0.180000       12.0110           0
      1751 P5       51       ETHY     H11      HGA2     0.090000        1.0080           0
      1752 P5       51       ETHY     H13      HGA2     0.090000        1.0080           0
      1753 P5       51       ETHY     C2       CG321   -0.180000       12.0110           0
      1754 P5       51       ETHY     H21      HGA2     0.090000        1.0080           0
      1755 P5       51       ETHY     H23      HGA2     0.090000        1.0080           0
      1756 P5       52       ETHY     C1       CG321   -0.180000       12.0110           0
      1757 P5       52       ETHY     H11      HGA2     0.090000        1.0080           0
      1758 P5       52       ETHY     H13      HGA2     0.090000        1.0080           0
      1759 P5       52       ETHY     C2       CG321   -0.180000       12.0110           0
      1760 P5       52       ETHY     H21      HGA2     0.090000        1.0080           0
      1761 P5       52       ETHY     H23      HGA2     0.090000        1.0080           0
      1762 P5       53       ETHY     C1       CG321   -0.180000       12.0110           0
      1763 P5       53       ETHY     H11      HGA2     0.090000        1.0080           0
      1764 P5       53       ETHY     H13      HGA2     0.090000        1.0080           0
      1765 P5       53       ETHY     C2       CG321   -0.180000       12.0110           0
      1766 P5       53       ETHY     H21      HGA2     0.090000        1.0080           0
      1767 P5       53       ETHY     H23      HGA2     0.090000        1.0080           0
      1768 P5       54       ETHY     C1       CG321   -0.180000       12.0110           0
      1769 P5       54       ETHY     H11      HGA2     0.090000        1.0080           0
      1770 P5       54       ETHY     H13      HGA2     0.090000        1.0080           0
      1771 P5       54       ETHY     C2       CG321   -0.180000       12.0110           0
      1772 P5       54       ETHY     H21      HGA2     0.090000        1.0080           0
      1773 P5       54       ETHY     H23      HGA2     0.090000        1.0080           0
      1774 P5       55       ETHY     C1       CG321   -0.180000       12.0110           0
      1775 P5       55       ETHY     H11      HGA2     0.090000        1.0080           0
      1776 P5       55       ETHY     H13      HGA2     0.090000        1.0080           0
      1777 P5       55       ETHY     C2       CG321   -0.180000       12.0110           0
      1778 P5       55       ETHY     H21      HGA2     0.090000        1.0080           0
      1779 P5       55       ETHY     H23      HGA2     0.090000        1.0080           0
      1780 P5       56       ETHY     C1       CG321   -0.180000       12.0110           0
      1781 P5       56       ETHY     H11      HGA2     0.090000        1.0080           0
      1782 P5       56       ETHY     H13      HGA2     0.090000        1.0080           0
      1783 P5       56       ETHY     C2       CG321   -0.180000       12.0110           0
      1784 P5       56       ETHY     H21      HGA2     0.090000        1.0080           0
      1785 P5       56       ETHY     H23      HGA2     0.090000        1.0080           0
      1786 P5       57       ETHY     C1       CG321   -0.180000       12.0110           0
      1787 P5       57       ETHY     H11      HGA2     0.090000        1.0080           0
      1788 P5       57       ETHY     H13      HGA2     0.090000        1.0080           0
      1789 P5       57       ETHY     C2       CG321   -0.180000       12.0110           0
      1790 P5       57       ETHY     H21      HGA2     0.090000        1.0080           0
      1791 P5       57       ETHY     H23      HGA2     0.090000        1.0080           0
      1792 P5       58       ETHY     C1       CG321   -0.180000       12.0110           0
      1793 P5       58       ETHY     H11      HGA2     0.090000        1.0080           0
      1794 P5       58       ETHY     H13      HGA2     0.090000        1.0080           0
      1795 P5       58       ETHY     C2       CG321   -0.180000       12.0110           0
      1796 P5       58       ETHY     H21      HGA2     0.090000        1.0080           0
      1797 P5       58       ETHY     H23      HGA2     0.090000        1.0080           0
      1798 P5       59       ETHY     C1       CG321   -0.180000       12.0110           0
      1799 P5       59       ETHY     H11      HGA2     0.090000        1.0080           0
      1800 P5       59       ETHY     H13      HGA2     0.090000        1.0080           0
      1801 P5       59       ETHY     C2       CG321   -0.180000       12.0110           0
      1802 P5       59       ETHY     H21      HGA2     0.090000        1.0080           0
      1803 P5       59       ETHY     H23      HGA2     0.090000        1.0080           0
      1804 P5       60       ETHY     C1       CG321   -0.180000       12.0110           0
      1805 P5       60       ETHY     H11      HGA2     0.090000        1.0080           0
      1806 P5       60       ETHY     H13      HGA2     0.090000        1.0080           0
      1807 P5       60       ETHY     C2       CG331   -0.270000       12.0110           0
      1808 P5       60       ETHY     H22      HGA3     0.090000        1.0080           0
      1809 P5       60       ETHY     H21      HGA3     0.090000        1.0080           0
      1810 P5       60       ETHY     H23      HGA3     0.090000        1.0080           0
      1811 P6       1        ETHY     C1       CG331   -0.270000       12.0110           0
      1812 P6       1        ETHY     H11      HGA3     0.090000        1.0080           0
      1813 P6       1        ETHY     H12      HGA3     0.090000        1.0080           0
      1814 P6       1        ETHY     H13      HGA3     0.090000        1.0080           0
      1815 P6       1        ETHY     C2       CG321   -0.180000       12.0110           0
      1816 P6       1        ETHY     H21      HGA2     0.090000        1.0080           0
      1817 P6       1        ETHY     H23      HGA2     0.090000        1.0080           0
      1818 P6       2        ETHY     C1       CG321   -0.180000       12.0110           0
      1819 P6       2        ETHY     H11      HGA2     0.090000        1.0080           0
      1820 P6       2        ETHY     H13      HGA2     0.090000        1.0080           0
      1821 P6       2        ETHY     C2       CG321   -0.180000       12.0110           0
      1822 P6       2        ETHY     H21      HGA2     0.090000        1.0080           0
      1823 P6       2        ETHY     H23      HGA2     0.090000        1.0080           0
      1824 P6       3        ETHY     C1       CG321   -0.180000       12.0110           0
      1825 P6       3        ETHY     H11      HGA2     0.090000        1.0080           0
      1826 P6       3        ETHY     H13      HGA2     0.090000        1.0080           0
      1827 P6       3        ETHY     C2       CG321   -0.180000       12.0110           0
      1828 P6       3        ETHY     H21      HGA2     0.090000        1.0080           0
      1829 P6       3        ETHY     H23      HGA2     0.090000        1.0080           0
      1830 P6       4        ETHY     C1       CG321   -0.180000       12.0110           0
      1831 P6       4        ETHY     H11      HGA2     0.090000        1.0080           0
      1832 P6       4        ETHY     H13      HGA2     0.090000        1.0080           0
      1833 P6       4        ETHY     C2       CG321   -0.180000       12.0110           0
      1834 P6       4        ETHY     H21      HGA2     0.090000        1.0080           0
      1835 P6       4        ETHY     H23      HGA2     0.090000        1.0080           0
      1836 P6       5        ETHY     C1       CG321   -0.180000       12.0110           0
      1837 P6       5        ETHY     H11      HGA2     0.090000        1.0080           0
      1838 P6       5        ETHY     H13      HGA2     0.090000        1.0080           0
      1839 P6       5        ETHY     C2       CG321   -0.180000       12.0110           0
      1840 P6       5        ETHY     H21      HGA2     0.090000        1.0080           0
      1841 P6       5        ETHY     H23      HGA2     0.090000        1.0080           0
      1842 P6       6        ETHY     C1       CG321   -0.180000       12.0110           0
      1843 P6       6        ETHY     H11      HGA2     0.090000        1.0080           0
      1844 P6       6        ETHY     H13      HGA2     0.090000        1.0080           0
      1845 P6       6        ETHY     C2       CG321   -0.180000       12.0110           0
      1846 P6       6        ETHY     H21      HGA2     0.090000        1.0080           0
      1847 P6       6        ETHY     H23      HGA2     0.090000        1.0080           0
      1848 P6       7        ETHY     C1       CG321   -0.180000       12.0110           0
      1849 P6       7        ETHY     H11      HGA2     0.090000        1.0080           0
      1850 P6       7        ETHY     H13      HGA2     0.090000        1.0080           0
      1851 P6       7        ETHY     C2       CG321   -0.180000       12.0110           0
      1852 P6       7        ETHY     H21      HGA2     0.090000        1.0080           0
      1853 P6       7        ETHY     H23      HGA2     0.090000        1.0080           0
      1854 P6       8        ETHY     C1       CG321   -0.180000       12.0110           0
      1855 P6       8        ETHY     H11      HGA2     0.090000        1.0080           0
      1856 P6       8        ETHY     H13      HGA2     0.090000        1.0080           0
      1857 P6       8        ETHY     C2       CG321   -0.180000       12.0110           0
      1858 P6       8        ETHY     H21      HGA2     0.090000        1.0080           0
      1859 P6       8        ETHY     H23      HGA2     0.090000        1.0080           0
      1860 P6       9        ETHY     C1       CG321   -0.180000       12.0110           0
      1861 P6       9        ETHY     H11      HGA2     0.090000        1.0080           0
      1862 P6       9        ETHY     H13      HGA2     0.090000        1.0080           0
      1863 P6       9        ETHY     C2       CG321   -0.180000       12.0110           0
      1864 P6       9        ETHY     H21      HGA2     0.090000        1.0080           0
      1865 P6       9        ETHY     H23      HGA2     0.090000        1.0080           0
      1866 P6       10       ETHY     C1       CG321   -0.180000       12.0110           0
      1867 P6       10       ETHY     H11      HGA2     0.090000        1.0080           0
      1868 P6       10       ETHY     H13      HGA2     0.090000        1.0080           0
      1869 P6       10       ETHY     C2       CG321   -0.180000       12.0110           0
      1870 P6       10       ETHY     H21      HGA2     0.090000        1.0080           0
      1871 P6       10       ETHY     H23      HGA2     0.090000        1.0080           0
      1872 P6       11       ETHY     C1       CG321   -0.180000       12.0110           0
      1873 P6       11       ETHY     H11      HGA2     0.090000        1.0080           0
      1874 P6       11       ETHY     H13      HGA2     0.090000        1.0080           0
      1875 P6       11       ETHY     C2       CG321   -0.180000       12.0110           0
      1876 P6       11       ETHY     H21      HGA2     0.090000        1.0080           0
      1877 P6       11       ETHY     H23      HGA2     0.090000        1.0080           0
      1878 P6       12       ETHY     C1       CG321   -0.180000       12.0110           0
      1879 P6       12       ETHY     H11      HGA2     0.090000        1.0080           0
      1880 P6       12       ETHY     H13      HGA2     0.090000        1.0080           0
      1881 P6       12       ETHY     C2       CG321   -0.180000       12.0110           0
      1882 P6       12       ETHY     H21      HGA2     0.090000        1.0080           0
      1883 P6       12       ETHY     H23      HGA2     0.090000        1.0080           0
      1884 P6       13       ETHY     C1       CG321   -0.180000       12.0110           0
      1885 P6       13       ETHY     H11      HGA2     0.090000        1.0080           0
      1886 P6       13       ETHY     H13      HGA2     0.090000        1.0080           0
      1887 P6       13       ETHY     C2       CG321   -0.180000       12.0110           0
      1888 P6       13       ETHY     H21      HGA2     0.090000        1.0080           0
      1889 P6       13       ETHY     H23      HGA2     0.090000        1.0080           0
      1890 P6       14       ETHY     C1       CG321   -0.180000       12.0110           0
      1891 P6       14       ETHY     H11      HGA2     0.090000        1.0080           0
      1892 P6       14       ETHY     H13      HGA2     0.090000        1.0080           0
      1893 P6       14       ETHY     C2       CG321   -0.180000       12.0110           0
      1894 P6       14       ETHY     H21      HGA2     0.090000        1.0080           0
      1895 P6       14       ETHY     H23      HGA2     0.090000        1.0080           0
      1896 P6       15       ETHY     C1       CG321   -0.180000       12.0110           0
      1897 P6       15       ETHY     H11      HGA2     0.090000        1.0080           0
      1898 P6       15       ETHY     H13      HGA2     0.090000        1.0080           0
      1899 P6       15       ETHY     C2       CG321   -0.180000       12.0110           0
      1900 P6       15       ETHY     H21      HGA2     0.090000        1.0080           0
      1901 P6       15       ETHY     H23      HGA2     0.090000        1.0080           0
      1902 P6       16       ETHY     C1       CG321   -0.180000       12.0110           0
      1903 P6       16       ETHY     H11      HGA2     0.090000        1.0080           0
      1904 P6       16       ETHY     H13      HGA2     0.090000        1.0080           0
      1905 P6       16       ETHY     C2       CG321   -0.180000       12.0110           0
      1906 P6       16       ETHY     H21      HGA2     0.090000        1.0080           0
      1907 P6       16       ETHY     H23      HGA2     0.090000        1.0080           0
      1908 P6       17       ETHY     C1       CG321   -0.180000       12.0110           0
      1909 P6       17       ETHY     H11      HGA2     0.090000        1.0080           0
      1910 P6       17       ETHY     H13      HGA2     0.090000        1.0080           0
      1911 P6       17       ETHY     C2       CG321   -0.180000       12.0110           0
      1912 P6       17       ETHY     H21      HGA2     0.090000        1.0080           0
      1913 P6       17       ETHY     H23      HGA2     0.090000        1.0080           0
      1914 P6       18       ETHY     C1       CG321   -0.180000       12.0110           0
      1915 P6       18       ETHY     H11      HGA2     0.090000        1.0080           0
      1916 P6       18       ETHY     H13      HGA2     0.090000        1.0080           0
      1917 P6       18       ETHY     C2       CG321   -0.180000       12.0110           0
      1918 P6       18       ETHY     H21      HGA2     0.090000        1.0080           0
      1919 P6       18       ETHY     H23      HGA2     0.090000        1.0080           0
      1920 P6       19       ETHY     C1       CG321   -0.180000       12.0110           0
      1921 P6       19       ETHY     H11      HGA2     0.090000        1.0080           0
      1922 P6       19       ETHY     H13      HGA2     0.090000        1.0080           0
      1923 P6       19       ETHY     C2       CG321   -0.180000       12.0110           0
      1924 P6       19       ETHY     H21      HGA2     0.090000        1.0080           0
      1925 P6       19       ETHY     H23      HGA2     0.090000        1.0080           0
      1926 P6       20       ETHY     C1       CG321   -0.180000       12.0110           0
      1927 P6       20       ETHY     H11      HGA2     0.090000        1.0080           0
      1928 P6       20       ETHY     H13      HGA2     0.090000        1.0080           0
      1929 P6       20       ETHY     C2       CG321   -0.180000       12.0110           0
      1930 P6       20       ETHY     H21      HGA2     0.090000        1.0080           0
      1931 P6       20       ETHY     H23      HGA2     0.090000        1.0080           0
      1932 P6       21       ETHY     C1       CG321   -0.180000       12.0110           0
      1933 P6       21       ETHY     H11      HGA2     0.090000        1.0080           0
      1934 P6       21       ETHY     H13      HGA2     0.090000        1.0080           0
      1935 P6       21       ETHY     C2       CG321   -0.180000       12.0110           0
      1936 P6       21       ETHY     H21      HGA2     0.090000        1.0080           0
      1937 P6       21       ETHY     H23      HGA2     0.090000        1.0080           0
      1938 P6       22       ETHY     C1       CG321   -0.180000       12.0110           0
      1939 P6       22       ETHY     H11      HGA2     0.090000        1.0080           0
      1940 P6       22       ETHY     H13      HGA2     0.090000        1.0080           0
      1941 P6       22       ETHY     C2       CG321   -0.180000       12.0110           0
      1942 P6       22       ETHY     H21      HGA2     0.090000        1.0080           0
      1943 P6       22       ETHY     H23      HGA2     0.090000        1.0080           0
      1944 P6       23       ETHY     C1       CG321   -0.180000       12.0110           0
      1945 P6       23       ETHY     H11      HGA2     0.090000        1.0080           0
      1946 P6       23       ETHY     H13      HGA2     0.090000        1.0080           0
      1947 P6       23       ETHY     C2       CG321   -0.180000       12.0110           0
      1948 P6       23       ETHY     H21      HGA2     0.090000        1.0080           0
      1949 P6       23       ETHY     H23      HGA2     0.090000        1.0080           0
      1950 P6       24       ETHY     C1       CG321   -0.180000       12.0110           0
      1951 P6       24       ETHY     H11      HGA2     0.090000        1.0080           0
      1952 P6       24       ETHY     H13      HGA2     0.090000        1.0080           0
      1953 P6       24       ETHY     C2       CG321   -0.180000       12.0110           0
      1954 P6       24       ETHY     H21      HGA2     0.090000        1.0080           0
      1955 P6       24       ETHY     H23      HGA2     0.090000        1.0080           0
      1956 P6       25       ETHY     C1       CG321   -0.180000       12.0110           0
      1957 P6       25       ETHY     H11      HGA2     0.090000        1.0080           0
      1958 P6       25       ETHY     H13      HGA2     0.090000        1.0080           0
      1959 P6       25       ETHY     C2       CG321   -0.180000       12.0110           0
      1960 P6       25       ETHY     H21      HGA2     0.090000        1.0080           0
      1961 P6       25       ETHY     H23      HGA2     0.090000        1.0080           0
      1962 P6       26       ETHY     C1       CG321   -0.180000       12.0110           0
      1963 P6       26       ETHY     H11      HGA2     0.090000        1.0080           0
      1964 P6       26       ETHY     H13      HGA2     0.090000        1.0080           0
      1965 P6       26       ETHY     C2       CG321   -0.180000       12.0110           0
      1966 P6       26       ETHY     H21      HGA2     0.090000        1.0080           0
      1967 P6       26       ETHY     H23      HGA2     0.090000        1.0080           0
      1968 P6       27       ETHY     C1       CG321   -0.180000       12.0110           0
      1969 P6       27       ETHY     H11      HGA2     0.090000        1.0080           0
      1970 P6       27       ETHY     H13      HGA2     0.090000        1.0080           0
      1971 P6       27       ETHY     C2       CG321   -0.180000       12.0110           0
      1972 P6       27       ETHY     H21      HGA2     0.090000        1.0080           0
      1973 P6       27       ETHY     H23      HGA2     0.090000        1.0080           0
      1974 P6       28       ETHY     C1       CG321   -0.180000       12.0110           0
      1975 P6       28       ETHY     H11      HGA2     0.090000        1.0080           0
      1976 P6       28       ETHY     H13      HGA2     0.090000        1.0080           0
      1977 P6       28       ETHY     C2       CG321   -0.180000       12.0110           0
      1978 P6       28       ETHY     H21      HGA2     0.090000        1.0080           0
      1979 P6       28       ETHY     H23      HGA2     0.090000        1.0080           0
      1980 P6       29       ETHY     C1       CG321   -0.180000       12.0110           0
      1981 P6       29       ETHY     H11      HGA2     0.090000        1.0080           0
      1982 P6       29       ETHY     H13      HGA2     0.090000        1.0080           0
      1983 P6       29       ETHY     C2       CG321   -0.180000       12.0110           0
      1984 P6       29       ETHY     H21      HGA2     0.090000        1.0080           0
      1985 P6       29       ETHY     H23      HGA2     0.090000        1.0080           0
      1986 P6       30       ETHY     C1       CG321   -0.180000       12.0110           0
      1987 P6       30       ETHY     H11      HGA2     0.090000        1.0080           0
      1988 P6       30       ETHY     H13      HGA2     0.090000        1.0080           0
      1989 P6       30       ETHY     C2       CG321   -0.180000       12.0110           0
      1990 P6       30       ETHY     H21      HGA2     0.090000        1.0080           0
      1991 P6       30       ETHY     H23      HGA2     0.090000        1.0080           0
      1992 P6       31       ETHY     C1       CG321   -0.180000       12.0110           0
      1993 P6       31       ETHY     H11      HGA2     0.090000        1.0080           0
      1994 P6       31       ETHY     H13      HGA2     0.090000        1.0080           0
      1995 P6       31       ETHY     C2       CG321   -0.180000       12.0110           0
      1996 P6       31       ETHY     H21      HGA2     0.090000        1.0080           0
      1997 P6       31       ETHY     H23      HGA2     0.090000        1.0080           0
      1998 P6       32       ETHY     C1       CG321   -0.180000       12.0110           0
      1999 P6       32       ETHY     H11      HGA2     0.090000        1.0080           0
      2000 P6       32       ETHY     H13      HGA2     0.090000        1.0080           0
      2001 P6       32       ETHY     C2       CG321   -0.180000       12.0110           0
      2002 P6       32       ETHY     H21      HGA2     0.090000        1.0080           0
      2003 P6       32       ETHY     H23      HGA2     0.090000        1.0080           0
      2004 P6       33       ETHY     C1       CG321   -0.180000       12.0110           0
      2005 P6       33       ETHY     H11      HGA2     0.090000        1.0080           0
      2006 P6       33       ETHY     H13      HGA2     0.090000        1.0080           0
      2007 P6       33       ETHY     C2       CG321   -0.180000       12.0110           0
      2008 P6       33       ETHY     H21      HGA2     0.090000        1.0080           0
      2009 P6       33       ETHY     H23      HGA2     0.090000        1.0080           0
      2010 P6       34       ETHY     C1       CG321   -0.180000       12.0110           0
      2011 P6       34       ETHY     H11      HGA2     0.090000        1.0080           0
      2012 P6       34       ETHY     H13      HGA2     0.090000        1.0080           0
      2013 P6       34       ETHY     C2       CG321   -0.180000       12.0110           0
      2014 P6       34       ETHY     H21      HGA2     0.090000        1.0080           0
      2015 P6       34       ETHY     H23      HGA2     0.090000        1.0080           0
      2016 P6       35       ETHY     C1       CG321   -0.180000       12.0110           0
      2017 P6       35       ETHY     H11      HGA2     0.090000        1.0080           0
      2018 P6       35       ETHY     H13      HGA2     0.090000        1.0080           0
      2019 P6       35       ETHY     C2       CG321   -0.180000       12.0110           0
      2020 P6       35       ETHY     H21      HGA2     0.090000        1.0080           0
      2021 P6       35       ETHY     H23      HGA2     0.090000        1.0080           0
      2022 P6       36       ETHY     C1       CG321   -0.180000       12.0110           0
      2023 P6       36       ETHY     H11      HGA2     0.090000        1.0080           0
      2024 P6       36       ETHY     H13      HGA2     0.090000        1.0080           0
      2025 P6       36       ETHY     C2       CG321   -0.180000       12.0110           0
      2026 P6       36       ETHY     H21      HGA2     0.090000        1.0080           0
      2027 P6       36       ETHY     H23      HGA2     0.090000        1.0080           0
      2028 P6       37       ETHY     C1       CG321   -0.180000       12.0110           0
      2029 P6       37       ETHY     H11      HGA2     0.090000        1.0080           0
      2030 P6       37       ETHY     H13      HGA2     0.090000        1.0080           0
      2031 P6       37       ETHY     C2       CG321   -0.180000       12.0110           0
      2032 P6       37       ETHY     H21      HGA2     0.090000        1.0080           0
      2033 P6       37       ETHY     H23      HGA2     0.090000        1.0080           0
      2034 P6       38       ETHY     C1       CG321   -0.180000       12.0110           0
      2035 P6       38       ETHY     H11      HGA2     0.090000        1.0080           0
      2036 P6       38       ETHY     H13      HGA2     0.090000        1.0080           0
      2037 P6       38       ETHY     C2       CG321   -0.180000       12.0110           0
      2038 P6       38       ETHY     H21      HGA2     0.090000        1.0080           0
      2039 P6       38       ETHY     H23      HGA2     0.090000        1.0080           0
      2040 P6       39       ETHY     C1       CG321   -0.180000       12.0110           0
      2041 P6       39       ETHY     H11      HGA2     0.090000        1.0080           0
      2042 P6       39       ETHY     H13      HGA2     0.090000        1.0080           0
      2043 P6       39       ETHY     C2       CG321   -0.180000       12.0110           0
      2044 P6       39       ETHY     H21      HGA2     0.090000        1.0080           0
      2045 P6       39       ETHY     H23      HGA2     0.090000        1.0080           0
      2046 P6       40       ETHY     C1       CG321   -0.180000       12.0110           0
      2047 P6       40       ETHY     H11      HGA2     0.090000        1.0080           0
      2048 P6       40       ETHY     H13      HGA2     0.090000        1.0080           0
      2049 P6       40       ETHY     C2       CG321   -0.180000       12.0110           0
      2050 P6       40       ETHY     H21      HGA2     0.090000        1.0080           0
      2051 P6       40       ETHY     H23      HGA2     0.090000        1.0080           0
      2052 P6       41       ETHY     C1       CG321   -0.180000       12.0110           0
      2053 P6       41       ETHY     H11      HGA2     0.090000        1.0080           0
      2054 P6       41       ETHY     H13      HGA2     0.090000        1.0080           0
      2055 P6       41       ETHY     C2       CG321   -0.180000       12.0110           0
      2056 P6       41       ETHY     H21      HGA2     0.090000        1.0080           0
      2057 P6       41       ETHY     H23      HGA2     0.090000        1.0080           0
      2058 P6       42       ETHY     C1       CG321   -0.180000       12.0110           0
      2059 P6       42       ETHY     H11      HGA2     0.090000        1.0080           0
      2060 P6       42       ETHY     H13      HGA2     0.090000        1.0080           0
      2061 P6       42       ETHY     C2       CG321   -0.180000       12.0110           0
      2062 P6       42       ETHY     H21      HGA2     0.090000        1.0080           0
      2063 P6       42       ETHY     H23      HGA2     0.090000        1.0080           0
      2064 P6       43       ETHY     C1       CG321   -0.180000       12.0110           0
      2065 P6       43       ETHY     H11      HGA2     0.090000        1.0080           0
      2066 P6       43       ETHY     H13      HGA2     0.090000        1.0080           0
      2067 P6       43       ETHY     C2       CG321   -0.180000       12.0110           0
      2068 P6       43       ETHY     H21      HGA2     0.090000        1.0080           0
      2069 P6       43       ETHY     H23      HGA2     0.090000        1.0080           0
      2070 P6       44       ETHY     C1       CG321   -0.180000       12.0110           0
      2071 P6       44       ETHY     H11      HGA2     0.090000        1.0080           0
      2072 P6       44       ETHY     H13      HGA2     0.090000        1.0080           0
      2073 P6       44       ETHY     C2       CG321   -0.180000       12.0110           0
      2074 P6       44       ETHY     H21      HGA2     0.090000        1.0080           0
      2075 P6       44       ETHY     H23      HGA2     0.090000        1.0080           0
      2076 P6       45       ETHY     C1       CG321   -0.180000       12.0110           0
      2077 P6       45       ETHY     H11      HGA2     0.090000        1.0080           0
      2078 P6       45       ETHY     H13      HGA2     0.090000        1.0080           0
      2079 P6       45       ETHY     C2       CG321   -0.180000       12.0110           0
      2080 P6       45       ETHY     H21      HGA2     0.090000        1.0080           0
      2081 P6       45       ETHY     H23      HGA2     0.090000        1.0080           0
      2082 P6       46       ETHY     C1       CG321   -0.180000       12.0110           0
      2083 P6       46       ETHY     H11      HGA2     0.090000        1.0080           0
      2084 P6       46       ETHY     H13      HGA2     0.090000        1.0080           0
      2085 P6       46       ETHY     C2       CG321   -0.180000       12.0110           0
      2086 P6       46       ETHY     H21      HGA2     0.090000        1.0080           0
      2087 P6       46       ETHY     H23      HGA2     0.090000        1.0080           0
      2088 P6       47       ETHY     C1       CG321   -0.180000       12.0110           0
      2089 P6       47       ETHY     H11      HGA2     0.090000        1.0080           0
      2090 P6       47       ETHY     H13      HGA2     0.090000        1.0080           0
      2091 P6       47       ETHY     C2       CG321   -0.180000       12.0110           0
      2092 P6       47       ETHY     H21      HGA2     0.090000        1.0080           0
      2093 P6       47       ETHY     H23      HGA2     0.090000        1.0080           0
      2094 P6       48       ETHY     C1       CG321   -0.180000       12.0110           0
      2095 P6       48       ETHY     H11      HGA2     0.090000        1.0080           0
      2096 P6       48       ETHY     H13      HGA2     0.090000        1.0080           0
      2097 P6       48       ETHY     C2       CG321   -0.180000       12.0110           0
      2098 P6       48       ETHY     H21      HGA2     0.090000        1.0080           0
      2099 P6       48       ETHY     H23      HGA2     0.090000        1.0080           0
      2100 P6       49       ETHY     C1       CG321   -0.180000       12.0110           0
      2101 P6       49       ETHY     H11      HGA2     0.090000        1.0080           0
      2102 P6       49       ETHY     H13      HGA2     0.090000        1.0080           0
      2103 P6       49       ETHY     C2       CG321   -0.180000       12.0110           0
      2104 P6       49       ETHY     H21      HGA2     0.090000        1.0080           0
      2105 P6       49       ETHY     H23      HGA2     0.090000        1.0080           0
      2106 P6       50       ETHY     C1       CG321   -0.180000       12.0110           0
      2107 P6       50       ETHY     H11      HGA2     0.090000        1.0080           0
      2108 P6       50       ETHY     H13      HGA2     0.090000        1.0080           0
      2109 P6       50       ETHY     C2       CG321   -0.180000       12.0110           0
      2110 P6       50       ETHY     H21      HGA2     0.090000        1.0080           0
      2111 P6       50       ETHY     H23      HGA2     0.090000        1.0080           0
      2112 P6       51       ETHY     C1       CG321   -0.180000       12.0110           0
      2113 P6       51       ETHY     H11      HGA2     0.090000        1.0080           0
      2114 P6       51       ETHY     H13      HGA2     0.090000        1.0080           0
      2115 P6       51       ETHY     C2       CG321   -0.180000       12.0110           0
      2116 P6       51       ETHY     H21      HGA2     0.090000        1.0080           0
      2117 P6       51       ETHY     H23      HGA2     0.090000        1.0080           0
      2118 P6       52       ETHY     C1       CG321   -0.180000       12.0110           0
      2119 P6       52       ETHY     H11      HGA2     0.090000        1.0080           0
      2120 P6       52       ETHY     H13      HGA2     0.090000        1.0080           0
      2121 P6       52       ETHY     C2       CG321   -0.180000       12.0110           0
      2122 P6       52       ETHY     H21      HGA2     0.090000        1.0080           0
      2123 P6       52       ETHY     H23      HGA2     0.090000        1.0080           0
      2124 P6       53       ETHY     C1       CG321   -0.180000       12.0110           0
      2125 P6       53       ETHY     H11      HGA2     0.090000        1.0080           0
      2126 P6       53       ETHY     H13      HGA2     0.090000        1.0080           0
      2127 P6       53       ETHY     C2       CG321   -0.180000       12.0110           0
      2128 P6       53       ETHY     H21      HGA2     0.090000        1.0080           0
      2129 P6       53       ETHY     H23      HGA2     0.090000        1.0080           0
      2130 P6       54       ETHY     C1       CG321   -0.180000       12.0110           0
      2131 P6       54       ETHY     H11      HGA2     0.090000        1.0080           0
      2132 P6       54       ETHY     H13      HGA2     0.090000        1.0080           0
      2133 P6       54       ETHY     C2       CG321   -0.180000       12.0110           0
      2134 P6       54       ETHY     H21      HGA2     0.090000        1.0080           0
      2135 P6       54       ETHY     H23      HGA2     0.090000        1.0080           0
      2136 P6       55       ETHY     C1       CG321   -0.180000       12.0110           0
      2137 P6       55       ETHY     H11      HGA2     0.090000        1.0080           0
      2138 P6       55       ETHY     H13      HGA2     0.090000        1.0080           0
      2139 P6       55       ETHY     C2       CG321   -0.180000       12.0110           0
      2140 P6       55       ETHY     H21      HGA2     0.090000        1.0080           0
      2141 P6       55       ETHY     H23      HGA2     0.090000        1.0080           0
      2142 P6       56       ETHY     C1       CG321   -0.180000       12.0110           0
      2143 P6       56       ETHY     H11      HGA2     0.090000        1.0080           0
      2144 P6       56       ETHY     H13      HGA2     0.090000        1.0080           0
      2145 P6       56       ETHY     C2       CG321   -0.180000       12.0110           0
      2146 P6       56       ETHY     H21      HGA2     0.090000        1.0080           0
      2147 P6       56       ETHY     H23      HGA2     0.090000        1.0080           0
      2148 P6       57       ETHY     C1       CG321   -0.180000       12.0110           0
      2149 P6       57       ETHY     H11      HGA2     0.090000        1.0080           0
      2150 P6       57       ETHY     H13      HGA2     0.090000        1.0080           0
      2151 P6       57       ETHY     C2       CG321   -0.180000       12.0110           0
      2152 P6       57       ETHY     H21      HGA2     0.090000        1.0080           0
      2153 P6       57       ETHY     H23      HGA2     0.090000        1.0080           0
      2154 P6       58       ETHY     C1       CG321   -0.180000       12.0110           0
      2155 P6       58       ETHY     H11      HGA2     0.090000        1.0080           0
      2156 P6       58       ETHY     H13      HGA2     0.090000        1.0080           0
      2157 P6       58       ETHY     C2       CG321   -0.180000       12.0110           0
      2158 P6       58       ETHY     H21      HGA2     0.090000        1.0080           0
      2159 P6       58       ETHY     H23      HGA2     0.090000        1.0080           0
      2160 P6       59       ETHY     C1       CG321   -0.180000       12.0110           0
      2161 P6       59       ETHY     H11      HGA2     0.090000        1.0080           0
      2162 P6       59       ETHY     H13      HGA2     0.090000        1.0080           0
      2163 P6       59       ETHY     C2       CG321   -0.180000       12.0110           0
      2164 P6       59       ETHY     H21      HGA2     0.090000        1.0080           0
      2165 P6       59       ETHY     H23      HGA2     0.090000        1.0080           0
      2166 P6       60       ETHY     C1       CG321   -0.180000       12.0110           0
      2167 P6       60       ETHY     H11      HGA2     0.090000        1.0080           0
      2168 P6       60       ETHY     H13      HGA2     0.090000        1.0080           0
      2169 P6       60       ETHY     C2       CG331   -0.270000       12.0110           0
      2170 P6       60       ETHY     H22      HGA3     0.090000        1.0080           0
      2171 P6       60       ETHY     H21      HGA3     0.090000        1.0080           0
      2172 P6       60       ETHY     H23      HGA3     0.090000        1.0080           0
      2173 P7       1        ETHY     C1       CG331   -0.270000       12.0110           0
      2174 P7       1        ETHY     H11      HGA3     0.090000        1.0080           0
      2175 P7       1        ETHY     H12      HGA3     0.090000        1.0080           0
      2176 P7       1        ETHY     H13      HGA3     0.090000        1.0080           0
      2177 P7       1        ETHY     C2       CG321   -0.180000       12.0110           0
      2178 P7       1        ETHY     H21      HGA2     0.090000        1.0080           0
      2179 P7       1        ETHY     H23      HGA2     0.090000        1.0080           0
      2180 P7       2        ETHY     C1       CG321   -0.180000       12.0110           0
      2181 P7       2        ETHY     H11      HGA2     0.090000        1.0080           0
      2182 P7       2        ETHY     H13      HGA2     0.090000        1.0080           0
      2183 P7       2        ETHY     C2       CG321   -0.180000       12.0110           0
      2184 P7       2        ETHY     H21      HGA2     0.090000        1.0080           0
      2185 P7       2        ETHY     H23      HGA2     0.090000        1.0080           0
      2186 P7       3        ETHY     C1       CG321   -0.180000       12.0110           0
      2187 P7       3        ETHY     H11      HGA2     0.090000        1.0080           0
      2188 P7       3        ETHY     H13      HGA2     0.090000        1.0080           0
      2189 P7       3        ETHY     C2       CG321   -0.180000       12.0110           0
      2190 P7       3        ETHY     H21      HGA2     0.090000        1.0080           0
      2191 P7       3        ETHY     H23      HGA2     0.090000        1.0080           0
      2192 P7       4        ETHY     C1       CG321   -0.180000       12.0110           0
      2193 P7       4        ETHY     H11      HGA2     0.090000        1.0080           0
      2194 P7       4        ETHY     H13      HGA2     0.090000        1.0080           0
      2195 P7       4        ETHY     C2       CG321   -0.180000       12.0110           0
      2196 P7       4        ETHY     H21      HGA2     0.090000        1.0080           0
      2197 P7       4        ETHY     H23      HGA2     0.090000        1.0080           0
      2198 P7       5        ETHY     C1       CG321   -0.180000       12.0110           0
      2199 P7       5        ETHY     H11      HGA2     0.090000        1.0080           0
      2200 P7       5        ETHY     H13      HGA2     0.090000        1.0080           0
      2201 P7       5        ETHY     C2       CG321   -0.180000       12.0110           0
      2202 P7       5        ETHY     H21      HGA2     0.090000        1.0080           0
      2203 P7       5        ETHY     H23      HGA2     0.090000        1.0080           0
      2204 P7       6        ETHY     C1       CG321   -0.180000       12.0110           0
      2205 P7       6        ETHY     H11      HGA2     0.090000        1.0080           0
      2206 P7       6        ETHY     H13      HGA2     0.090000        1.0080           0
      2207 P7       6        ETHY     C2       CG321   -0.180000       12.0110           0
      2208 P7       6        ETHY     H21      HGA2     0.090000        1.0080           0
      2209 P7       6        ETHY     H23      HGA2     0.090000        1.0080           0
      2210 P7       7        ETHY     C1       CG321   -0.180000       12.0110           0
      2211 P7       7        ETHY     H11      HGA2     0.090000        1.0080           0
      2212 P7       7        ETHY     H13      HGA2     0.090000        1.0080           0
      2213 P7       7        ETHY     C2       CG321   -0.180000       12.0110           0
      2214 P7       7        ETHY     H21      HGA2     0.090000        1.0080           0
      2215 P7       7        ETHY     H23      HGA2     0.090000        1.0080           0
      2216 P7       8        ETHY     C1       CG321   -0.180000       12.0110           0
      2217 P7       8        ETHY     H11      HGA2     0.090000        1.0080           0
      2218 P7       8        ETHY     H13      HGA2     0.090000        1.0080           0
      2219 P7       8        ETHY     C2       CG321   -0.180000       12.0110           0
      2220 P7       8        ETHY     H21      HGA2     0.090000        1.0080           0
      2221 P7       8        ETHY     H23      HGA2     0.090000        1.0080           0
      2222 P7       9        ETHY     C1       CG321   -0.180000       12.0110           0
      2223 P7       9        ETHY     H11      HGA2     0.090000        1.0080           0
      2224 P7       9        ETHY     H13      HGA2     0.090000        1.0080           0
      2225 P7       9        ETHY     C2       CG321   -0.180000       12.0110           0
      2226 P7       9        ETHY     H21      HGA2     0.090000        1.0080           0
      2227 P7       9        ETHY     H23      HGA2     0.090000        1.0080           0
      2228 P7       10       ETHY     C1       CG321   -0.180000       12.0110           0
      2229 P7       10       ETHY     H11      HGA2     0.090000        1.0080           0
      2230 P7       10       ETHY     H13      HGA2     0.090000        1.0080           0
      2231 P7       10       ETHY     C2       CG321   -0.180000       12.0110           0
      2232 P7       10       ETHY     H21      HGA2     0.090000        1.0080           0
      2233 P7       10       ETHY     H23      HGA2     0.090000        1.0080           0
      2234 P7       11       ETHY     C1       CG321   -0.180000       12.0110           0
      2235 P7       11       ETHY     H11      HGA2     0.090000        1.0080           0
      2236 P7       11       ETHY     H13      HGA2     0.090000        1.0080           0
      2237 P7       11       ETHY     C2       CG321   -0.180000       12.0110           0
      2238 P7       11       ETHY     H21      HGA2     0.090000        1.0080           0
      2239 P7       11       ETHY     H23      HGA2     0.090000        1.0080           0
      2240 P7       12       ETHY     C1       CG321   -0.180000       12.0110           0
      2241 P7       12       ETHY     H11      HGA2     0.090000        1.0080           0
      2242 P7       12       ETHY     H13      HGA2     0.090000        1.0080           0
      2243 P7       12       ETHY     C2       CG321   -0.180000       12.0110           0
      2244 P7       12       ETHY     H21      HGA2     0.090000        1.0080           0
      2245 P7       12       ETHY     H23      HGA2     0.090000        1.0080           0
      2246 P7       13       ETHY     C1       CG321   -0.180000       12.0110           0
      2247 P7       13       ETHY     H11      HGA2     0.090000        1.0080           0
      2248 P7       13       ETHY     H13      HGA2     0.090000        1.0080           0
      2249 P7       13       ETHY     C2       CG321   -0.180000       12.0110           0
      2250 P7       13       ETHY     H21      HGA2     0.090000        1.0080           0
      2251 P7       13       ETHY     H23      HGA2     0.090000        1.0080           0
      2252 P7       14       ETHY     C1       CG321   -0.180000       12.0110           0
      2253 P7       14       ETHY     H11      HGA2     0.090000        1.0080           0
      2254 P7       14       ETHY     H13      HGA2     0.090000        1.0080           0
      2255 P7       14       ETHY     C2       CG321   -0.180000       12.0110           0
      2256 P7       14       ETHY     H21      HGA2     0.090000        1.0080           0
      2257 P7       14       ETHY     H23      HGA2     0.090000        1.0080           0
      2258 P7       15       ETHY     C1       CG321   -0.180000       12.0110           0
      2259 P7       15       ETHY     H11      HGA2     0.090000        1.0080           0
      2260 P7       15       ETHY     H13      HGA2     0.090000        1.0080           0
      2261 P7       15       ETHY     C2       CG321   -0.180000       12.0110           0
      2262 P7       15       ETHY     H21      HGA2     0.090000        1.0080           0
      2263 P7       15       ETHY     H23      HGA2     0.090000        1.0080           0
      2264 P7       16       ETHY     C1       CG321   -0.180000       12.0110           0
      2265 P7       16       ETHY     H11      HGA2     0.090000        1.0080           0
      2266 P7       16       ETHY     H13      HGA2     0.090000        1.0080           0
      2267 P7       16       ETHY     C2       CG321   -0.180000       12.0110           0
      2268 P7       16       ETHY     H21      HGA2     0.090000        1.0080           0
      2269 P7       16       ETHY     H23      HGA2     0.090000        1.0080           0
      2270 P7       17       ETHY     C1       CG321   -0.180000       12.0110           0
      2271 P7       17       ETHY     H11      HGA2     0.090000        1.0080           0
      2272 P7       17       ETHY     H13      HGA2     0.090000        1.0080           0
      2273 P7       17       ETHY     C2       CG321   -0.180000       12.0110           0
      2274 P7       17       ETHY     H21      HGA2     0.090000        1.0080           0
      2275 P7       17       ETHY     H23      HGA2     0.090000        1.0080           0
      2276 P7       18       ETHY     C1       CG321   -0.180000       12.0110           0
      2277 P7       18       ETHY     H11      HGA2     0.090000        1.0080           0
      2278 P7       18       ETHY     H13      HGA2     0.090000        1.0080           0
      2279 P7       18       ETHY     C2       CG321   -0.180000       12.0110           0
      2280 P7       18       ETHY     H21      HGA2     0.090000        1.0080           0
      2281 P7       18       ETHY     H23      HGA2     0.090000        1.0080           0
      2282 P7       19       ETHY     C1       CG321   -0.180000       12.0110           0
      2283 P7       19       ETHY     H11      HGA2     0.090000        1.0080           0
      2284 P7       19       ETHY     H13      HGA2     0.090000        1.0080           0
      2285 P7       19       ETHY     C2       CG321   -0.180000       12.0110           0
      2286 P7       19       ETHY     H21      HGA2     0.090000        1.0080           0
      2287 P7       19       ETHY     H23      HGA2     0.090000        1.0080           0
      2288 P7       20       ETHY     C1       CG321   -0.180000       12.0110           0
      2289 P7       20       ETHY     H11      HGA2     0.090000        1.0080           0
      2290 P7       20       ETHY     H13      HGA2     0.090000        1.0080           0
      2291 P7       20       ETHY     C2       CG321   -0.180000       12.0110           0
      2292 P7       20       ETHY     H21      HGA2     0.090000        1.0080           0
      2293 P7       20       ETHY     H23      HGA2     0.090000        1.0080           0
      2294 P7       21       ETHY     C1       CG321   -0.180000       12.0110           0
      2295 P7       21       ETHY     H11      HGA2     0.090000        1.0080           0
      2296 P7       21       ETHY     H13      HGA2     0.090000        1.0080           0
      2297 P7       21       ETHY     C2       CG321   -0.180000       12.0110           0
      2298 P7       21       ETHY     H21      HGA2     0.090000        1.0080           0
      2299 P7       21       ETHY     H23      HGA2     0.090000        1.0080           0
      2300 P7       22       ETHY     C1       CG321   -0.180000       12.0110           0
      2301 P7       22       ETHY     H11      HGA2     0.090000        1.0080           0
      2302 P7       22       ETHY     H13      HGA2     0.090000        1.0080           0
      2303 P7       22       ETHY     C2       CG321   -0.180000       12.0110           0
      2304 P7       22       ETHY     H21      HGA2     0.090000        1.0080           0
      2305 P7       22       ETHY     H23      HGA2     0.090000        1.0080           0
      2306 P7       23       ETHY     C1       CG321   -0.180000       12.0110           0
      2307 P7       23       ETHY     H11      HGA2     0.090000        1.0080           0
      2308 P7       23       ETHY     H13      HGA2     0.090000        1.0080           0
      2309 P7       23       ETHY     C2       CG321   -0.180000       12.0110           0
      2310 P7       23       ETHY     H21      HGA2     0.090000        1.0080           0
      2311 P7       23       ETHY     H23      HGA2     0.090000        1.0080           0
      2312 P7       24       ETHY     C1       CG321   -0.180000       12.0110           0
      2313 P7       24       ETHY     H11      HGA2     0.090000        1.0080           0
      2314 P7       24       ETHY     H13      HGA2     0.090000        1.0080           0
      2315 P7       24       ETHY     C2       CG321   -0.180000       12.0110           0
      2316 P7       24       ETHY     H21      HGA2     0.090000        1.0080           0
      2317 P7       24       ETHY     H23      HGA2     0.090000        1.0080           0
      2318 P7       25       ETHY     C1       CG321   -0.180000       12.0110           0
      2319 P7       25       ETHY     H11      HGA2     0.090000        1.0080           0
      2320 P7       25       ETHY     H13      HGA2     0.090000        1.0080           0
      2321 P7       25       ETHY     C2       CG321   -0.180000       12.0110           0
      2322 P7       25       ETHY     H21      HGA2     0.090000        1.0080           0
      2323 P7       25       ETHY     H23      HGA2     0.090000        1.0080           0
      2324 P7       26       ETHY     C1       CG321   -0.180000       12.0110           0
      2325 P7       26       ETHY     H11      HGA2     0.090000        1.0080           0
      2326 P7       26       ETHY     H13      HGA2     0.090000        1.0080           0
      2327 P7       26       ETHY     C2       CG321   -0.180000       12.0110           0
      2328 P7       26       ETHY     H21      HGA2     0.090000        1.0080           0
      2329 P7       26       ETHY     H23      HGA2     0.090000        1.0080           0
      2330 P7       27       ETHY     C1       CG321   -0.180000       12.0110           0
      2331 P7       27       ETHY     H11      HGA2     0.090000        1.0080           0
      2332 P7       27       ETHY     H13      HGA2     0.090000        1.0080           0
      2333 P7       27       ETHY     C2       CG321   -0.180000       12.0110           0
      2334 P7       27       ETHY     H21      HGA2     0.090000        1.0080           0
      2335 P7       27       ETHY     H23      HGA2     0.090000        1.0080           0
      2336 P7       28       ETHY     C1       CG321   -0.180000       12.0110           0
      2337 P7       28       ETHY     H11      HGA2     0.090000        1.0080           0
      2338 P7       28       ETHY     H13      HGA2     0.090000        1.0080           0
      2339 P7       28       ETHY     C2       CG321   -0.180000       12.0110           0
      2340 P7       28       ETHY     H21      HGA2     0.090000        1.0080           0
      2341 P7       28       ETHY     H23      HGA2     0.090000        1.0080           0
      2342 P7       29       ETHY     C1       CG321   -0.180000       12.0110           0
      2343 P7       29       ETHY     H11      HGA2     0.090000        1.0080           0
      2344 P7       29       ETHY     H13      HGA2     0.090000        1.0080           0
      2345 P7       29       ETHY     C2       CG321   -0.180000       12.0110           0
      2346 P7       29       ETHY     H21      HGA2     0.090000        1.0080           0
      2347 P7       29       ETHY     H23      HGA2     0.090000        1.0080           0
      2348 P7       30       ETHY     C1       CG321   -0.180000       12.0110           0
      2349 P7       30       ETHY     H11      HGA2     0.090000        1.0080           0
      2350 P7       30       ETHY     H13      HGA2     0.090000        1.0080           0
      2351 P7       30       ETHY     C2       CG321   -0.180000       12.0110           0
      2352 P7       30       ETHY     H21      HGA2     0.090000        1.0080           0
      2353 P7       30       ETHY     H23      HGA2     0.090000        1.0080           0
      2354 P7       31       ETHY     C1       CG321   -0.180000       12.0110           0
      2355 P7       31       ETHY     H11      HGA2     0.090000        1.0080           0
      2356 P7       31       ETHY     H13      HGA2     0.090000        1.0080           0
      2357 P7       31       ETHY     C2       CG321   -0.180000       12.0110           0
      2358 P7       31       ETHY     H21      HGA2     0.090000        1.0080           0
      2359 P7       31       ETHY     H23      HGA2     0.090000        1.0080           0
      2360 P7       32       ETHY     C1       CG321   -0.180000       12.0110           0
      2361 P7       32       ETHY     H11      HGA2     0.090000        1.0080           0
      2362 P7       32       ETHY     H13      HGA2     0.090000        1.0080           0
      2363 P7       32       ETHY     C2       CG321   -0.180000       12.0110           0
      2364 P7       32       ETHY     H21      HGA2     0.090000        1.0080           0
      2365 P7       32       ETHY     H23      HGA2     0.090000        1.0080           0
      2366 P7       33       ETHY     C1       CG321   -0.180000       12.0110           0
      2367 P7       33       ETHY     H11      HGA2     0.090000        1.0080           0
      2368 P7       33       ETHY     H13      HGA2     0.090000        1.0080           0
      2369 P7       33       ETHY     C2       CG321   -0.180000       12.0110           0
      2370 P7       33       ETHY     H21      HGA2     0.090000        1.0080           0
      2371 P7       33       ETHY     H23      HGA2     0.090000        1.0080           0
      2372 P7       34       ETHY     C1       CG321   -0.180000       12.0110           0
      2373 P7       34       ETHY     H11      HGA2     0.090000        1.0080           0
      2374 P7       34       ETHY     H13      HGA2     0.090000        1.0080           0
      2375 P7       34       ETHY     C2       CG321   -0.180000       12.0110           0
      2376 P7       34       ETHY     H21      HGA2     0.090000        1.0080           0
      2377 P7       34       ETHY     H23      HGA2     0.090000        1.0080           0
      2378 P7       35       ETHY     C1       CG321   -0.180000       12.0110           0
      2379 P7       35       ETHY     H11      HGA2     0.090000        1.0080           0
      2380 P7       35       ETHY     H13      HGA2     0.090000        1.0080           0
      2381 P7       35       ETHY     C2       CG321   -0.180000       12.0110           0
      2382 P7       35       ETHY     H21      HGA2     0.090000        1.0080           0
      2383 P7       35       ETHY     H23      HGA2     0.090000        1.0080           0
      2384 P7       36       ETHY     C1       CG321   -0.180000       12.0110           0
      2385 P7       36       ETHY     H11      HGA2     0.090000        1.0080           0
      2386 P7       36       ETHY     H13      HGA2     0.090000        1.0080           0
      2387 P7       36       ETHY     C2       CG321   -0.180000       12.0110           0
      2388 P7       36       ETHY     H21      HGA2     0.090000        1.0080           0
      2389 P7       36       ETHY     H23      HGA2     0.090000        1.0080           0
      2390 P7       37       ETHY     C1       CG321   -0.180000       12.0110           0
      2391 P7       37       ETHY     H11      HGA2     0.090000        1.0080           0
      2392 P7       37       ETHY     H13      HGA2     0.090000        1.0080           0
      2393 P7       37       ETHY     C2       CG321   -0.180000       12.0110           0
      2394 P7       37       ETHY     H21      HGA2     0.090000        1.0080           0
      2395 P7       37       ETHY     H23      HGA2     0.090000        1.0080           0
      2396 P7       38       ETHY     C1       CG321   -0.180000       12.0110           0
      2397 P7       38       ETHY     H11      HGA2     0.090000        1.0080           0
      2398 P7       38       ETHY     H13      HGA2     0.090000        1.0080           0
      2399 P7       38       ETHY     C2       CG321   -0.180000       12.0110           0
      2400 P7       38       ETHY     H21      HGA2     0.090000        1.0080           0
      2401 P7       38       ETHY     H23      HGA2     0.090000        1.0080           0
      2402 P7       39       ETHY     C1       CG321   -0.180000       12.0110           0
      2403 P7       39       ETHY     H11      HGA2     0.090000        1.0080           0
      2404 P7       39       ETHY     H13      HGA2     0.090000        1.0080           0
      2405 P7       39       ETHY     C2       CG321   -0.180000       12.0110           0
      2406 P7       39       ETHY     H21      HGA2     0.090000        1.0080           0
      2407 P7       39       ETHY     H23      HGA2     0.090000        1.0080           0
      2408 P7       40       ETHY     C1       CG321   -0.180000       12.0110           0
      2409 P7       40       ETHY     H11      HGA2     0.090000        1.0080           0
      2410 P7       40       ETHY     H13      HGA2     0.090000        1.0080           0
      2411 P7       40       ETHY     C2       CG321   -0.180000       12.0110           0
      2412 P7       40       ETHY     H21      HGA2     0.090000        1.0080           0
      2413 P7       40       ETHY     H23      HGA2     0.090000        1.0080           0
      2414 P7       41       ETHY     C1       CG321   -0.180000       12.0110           0
      2415 P7       41       ETHY     H11      HGA2     0.090000        1.0080           0
      2416 P7       41       ETHY     H13      HGA2     0.090000        1.0080           0
      2417 P7       41       ETHY     C2       CG321   -0.180000       12.0110           0
      2418 P7       41       ETHY     H21      HGA2     0.090000        1.0080           0
      2419 P7       41       ETHY     H23      HGA2     0.090000        1.0080           0
      2420 P7       42       ETHY     C1       CG321   -0.180000       12.0110           0
      2421 P7       42       ETHY     H11      HGA2     0.090000        1.0080           0
      2422 P7       42       ETHY     H13      HGA2     0.090000        1.0080           0
      2423 P7       42       ETHY     C2       CG321   -0.180000       12.0110           0
      2424 P7       42       ETHY     H21      HGA2     0.090000        1.0080           0
      2425 P7       42       ETHY     H23      HGA2     0.090000        1.0080           0
      2426 P7       43       ETHY     C1       CG321   -0.180000       12.0110           0
      2427 P7       43       ETHY     H11      HGA2     0.090000        1.0080           0
      2428 P7       43       ETHY     H13      HGA2     0.090000        1.0080           0
      2429 P7       43       ETHY     C2       CG321   -0.180000       12.0110           0
      2430 P7       43       ETHY     H21      HGA2     0.090000        1.0080           0
      2431 P7       43       ETHY     H23      HGA2     0.090000        1.0080           0
      2432 P7       44       ETHY     C1       CG321   -0.180000       12.0110           0
      2433 P7       44       ETHY     H11      HGA2     0.090000        1.0080           0
      2434 P7       44       ETHY     H13      HGA2     0.090000        1.0080           0
      2435 P7       44       ETHY     C2       CG321   -0.180000       12.0110           0
      2436 P7       44       ETHY     H21      HGA2     0.090000        1.0080           0
      2437 P7       44       ETHY     H23      HGA2     0.090000        1.0080           0
      2438 P7       45       ETHY     C1       CG321   -0.180000       12.0110           0
      2439 P7       45       ETHY     H11      HGA2     0.090000        1.0080           0
      2440 P7       45       ETHY     H13      HGA2     0.090000        1.0080           0
      2441 P7       45       ETHY     C2       CG321   -0.180000       12.0110           0
      2442 P7       45       ETHY     H21      HGA2     0.090000        1.0080           0
      2443 P7       45       ETHY     H23      HGA2     0.090000        1.0080           0
      2444 P7       46       ETHY     C1       CG321   -0.180000       12.0110           0
      2445 P7       46       ETHY     H11      HGA2     0.090000        1.0080           0
      2446 P7       46       ETHY     H13      HGA2     0.090000        1.0080           0
      2447 P7       46       ETHY     C2       CG321   -0.180000       12.0110           0
      2448 P7       46       ETHY     H21      HGA2     0.090000        1.0080           0
      2449 P7       46       ETHY     H23      HGA2     0.090000        1.0080           0
      2450 P7       47       ETHY     C1       CG321   -0.180000       12.0110           0
      2451 P7       47       ETHY     H11      HGA2     0.090000        1.0080           0
      2452 P7       47       ETHY     H13      HGA2     0.090000        1.0080           0
      2453 P7       47       ETHY     C2       CG321   -0.180000       12.0110           0
      2454 P7       47       ETHY     H21      HGA2     0.090000        1.0080           0
      2455 P7       47       ETHY     H23      HGA2     0.090000        1.0080           0
      2456 P7       48       ETHY     C1       CG321   -0.180000       12.0110           0
      2457 P7       48       ETHY     H11      HGA2     0.090000        1.0080           0
      2458 P7       48       ETHY     H13      HGA2     0.090000        1.0080           0
      2459 P7       48       ETHY     C2       CG321   -0.180000       12.0110           0
      2460 P7       48       ETHY     H21      HGA2     0.090000        1.0080           0
      2461 P7       48       ETHY     H23      HGA2     0.090000        1.0080           0
      2462 P7       49       ETHY     C1       CG321   -0.180000       12.0110           0
      2463 P7       49       ETHY     H11      HGA2     0.090000        1.0080           0
      2464 P7       49       ETHY     H13      HGA2     0.090000        1.0080           0
      2465 P7       49       ETHY     C2       CG321   -0.180000       12.0110           0
      2466 P7       49       ETHY     H21      HGA2     0.090000        1.0080           0
      2467 P7       49       ETHY     H23      HGA2     0.090000        1.0080           0
      2468 P7       50       ETHY     C1       CG321   -0.180000       12.0110           0
      2469 P7       50       ETHY     H11      HGA2     0.090000        1.0080           0
      2470 P7       50       ETHY     H13      HGA2     0.090000        1.0080           0
      2471 P7       50       ETHY     C2       CG321   -0.180000       12.0110           0
      2472 P7       50       ETHY     H21      HGA2     0.090000        1.0080           0
      2473 P7       50       ETHY     H23      HGA2     0.090000        1.0080           0
      2474 P7       51       ETHY     C1       CG321   -0.180000       12.0110           0
      2475 P7       51       ETHY     H11      HGA2     0.090000        1.0080           0
      2476 P7       51       ETHY     H13      HGA2     0.090000        1.0080           0
      2477 P7       51       ETHY     C2       CG321   -0.180000       12.0110           0
      2478 P7       51       ETHY     H21      HGA2     0.090000        1.0080           0
      2479 P7       51       ETHY     H23      HGA2     0.090000        1.0080           0
      2480 P7       52       ETHY     C1       CG321   -0.180000       12.0110           0
      2481 P7       52       ETHY     H11      HGA2     0.090000        1.0080           0
      2482 P7       52       ETHY     H13      HGA2     0.090000        1.0080           0
      2483 P7       52       ETHY     C2       CG321   -0.180000       12.0110           0
      2484 P7       52       ETHY     H21      HGA2     0.090000        1.0080           0
      2485 P7       52       ETHY     H23      HGA2     0.090000        1.0080           0
      2486 P7       53       ETHY     C1       CG321   -0.180000       12.0110           0
      2487 P7       53       ETHY     H11      HGA2     0.090000        1.0080           0
      2488 P7       53       ETHY     H13      HGA2     0.090000        1.0080           0
      2489 P7       53       ETHY     C2       CG321   -0.180000       12.0110           0
      2490 P7       53       ETHY     H21      HGA2     0.090000        1.0080           0
      2491 P7       53       ETHY     H23      HGA2     0.090000        1.0080           0
      2492 P7       54       ETHY     C1       CG321   -0.180000       12.0110           0
      2493 P7       54       ETHY     H11      HGA2     0.090000        1.0080           0
      2494 P7       54       ETHY     H13      HGA2     0.090000        1.0080           0
      2495 P7       54       ETHY     C2       CG321   -0.180000       12.0110           0
      2496 P7       54       ETHY     H21      HGA2     0.090000        1.0080           0
      2497 P7       54       ETHY     H23      HGA2     0.090000        1.0080           0
      2498 P7       55       ETHY     C1       CG321   -0.180000       12.0110           0
      2499 P7       55       ETHY     H11      HGA2     0.090000        1.0080           0
      2500 P7       55       ETHY     H13      HGA2     0.090000        1.0080           0
      2501 P7       55       ETHY     C2       CG321   -0.180000       12.0110           0
      2502 P7       55       ETHY     H21      HGA2     0.090000        1.0080           0
      2503 P7       55       ETHY     H23      HGA2     0.090000        1.0080           0
      2504 P7       56       ETHY     C1       CG321   -0.180000       12.0110           0
      2505 P7       56       ETHY     H11      HGA2     0.090000        1.0080           0
      2506 P7       56       ETHY     H13      HGA2     0.090000        1.0080           0
      2507 P7       56       ETHY     C2       CG321   -0.180000       12.0110           0
      2508 P7       56       ETHY     H21      HGA2     0.090000        1.0080           0
      2509 P7       56       ETHY     H23      HGA2     0.090000        1.0080           0
      2510 P7       57       ETHY     C1       CG321   -0.180000       12.0110           0
      2511 P7       57       ETHY     H11      HGA2     0.090000        1.0080           0
      2512 P7       57       ETHY     H13      HGA2     0.090000        1.0080           0
      2513 P7       57       ETHY     C2       CG321   -0.180000       12.0110           0
      2514 P7       57       ETHY     H21      HGA2     0.090000        1.0080           0
      2515 P7       57       ETHY     H23      HGA2     0.090000        1.0080           0
      2516 P7       58       ETHY     C1       CG321   -0.180000       12.0110           0
      2517 P7       58       ETHY     H11      HGA2     0.090000        1.0080           0
      2518 P7       58       ETHY     H13      HGA2     0.090000        1.0080           0
      2519 P7       58       ETHY     C2       CG321   -0.180000       12.0110           0
      2520 P7       58       ETHY     H21      HGA2     0.090000        1.0080           0
      2521 P7       58       ETHY     H23      HGA2     0.090000        1.0080           0
      2522 P7       59       ETHY     C1       CG321   -0.180000       12.0110           0
      2523 P7       59       ETHY     H11      HGA2     0.090000        1.0080           0
      2524 P7       59       ETHY     H13      HGA2     0.090000        1.0080           0
      2525 P7       59       ETHY     C2       CG321   -0.180000       12.0110           0
      2526 P7       59       ETHY     H21      HGA2     0.090000        1.0080           0
      2527 P7       59       ETHY     H23      HGA2     0.090000        1.0080           0
      2528 P7       60       ETHY     C1       CG321   -0.180000       12.0110           0
      2529 P7       60       ETHY     H11      HGA2     0.090000        1.0080           0
      2530 P7       60       ETHY     H13      HGA2     0.090000        1.0080           0
      2531 P7       60       ETHY     C2       CG331   -0.270000       12.0110           0
      2532 P7       60       ETHY     H22      HGA3     0.090000        1.0080           0
      2533 P7       60       ETHY     H21      HGA3     0.090000        1.0080           0
      2534 P7       60       ETHY     H23      HGA3     0.090000        1.0080           0
      2535 P8       1        ETHY     C1       CG331   -0.270000       12.0110           0
      2536 P8       1        ETHY     H11      HGA3     0.090000        1.0080           0
      2537 P8       1        ETHY     H12      HGA3     0.090000        1.0080           0
      2538 P8       1        ETHY     H13      HGA3     0.090000        1.0080           0
      2539 P8       1        ETHY     C2       CG321   -0.180000       12.0110           0
      2540 P8       1        ETHY     H21      HGA2     0.090000        1.0080           0
      2541 P8       1        ETHY     H23      HGA2     0.090000        1.0080           0
      2542 P8       2        ETHY     C1       CG321   -0.180000       12.0110           0
      2543 P8       2        ETHY     H11      HGA2     0.090000        1.0080           0
      2544 P8       2        ETHY     H13      HGA2     0.090000        1.0080           0
      2545 P8       2        ETHY     C2       CG321   -0.180000       12.0110           0
      2546 P8       2        ETHY     H21      HGA2     0.090000        1.0080           0
      2547 P8       2        ETHY     H23      HGA2     0.090000        1.0080           0
      2548 P8       3        ETHY     C1       CG321   -0.180000       12.0110           0
      2549 P8       3        ETHY     H11      HGA2     0.090000        1.0080           0
      2550 P8       3        ETHY     H13      HGA2     0.090000        1.0080           0
      2551 P8       3        ETHY     C2       CG321   -0.180000       12.0110           0
      2552 P8       3        ETHY     H21      HGA2     0.090000        1.0080           0
      2553 P8       3        ETHY     H23      HGA2     0.090000        1.0080           0
      2554 P8       4        ETHY     C1       CG321   -0.180000       12.0110           0
      2555 P8       4        ETHY     H11      HGA2     0.090000        1.0080           0
      2556 P8       4        ETHY     H13      HGA2     0.090000        1.0080           0
      2557 P8       4        ETHY     C2       CG321   -0.180000       12.0110           0
      2558 P8       4        ETHY     H21      HGA2     0.090000        1.0080           0
      2559 P8       4        ETHY     H23      HGA2     0.090000        1.0080           0
      2560 P8       5        ETHY     C1       CG321   -0.180000       12.0110           0
      2561 P8       5        ETHY     H11      HGA2     0.090000        1.0080           0
      2562 P8       5        ETHY     H13      HGA2     0.090000        1.0080           0
      2563 P8       5        ETHY     C2       CG321   -0.180000       12.0110           0
      2564 P8       5        ETHY     H21      HGA2     0.090000        1.0080           0
      2565 P8       5        ETHY     H23      HGA2     0.090000        1.0080           0
      2566 P8       6        ETHY     C1       CG321   -0.180000       12.0110           0
      2567 P8       6        ETHY     H11      HGA2     0.090000        1.0080           0
      2568 P8       6        ETHY     H13      HGA2     0.090000        1.0080           0
      2569 P8       6        ETHY     C2       CG321   -0.180000       12.0110           0
      2570 P8       6        ETHY     H21      HGA2     0.090000        1.0080           0
      2571 P8       6        ETHY     H23      HGA2     0.090000        1.0080           0
      2572 P8       7        ETHY     C1       CG321   -0.180000       12.0110           0
      2573 P8       7        ETHY     H11      HGA2     0.090000        1.0080           0
      2574 P8       7        ETHY     H13      HGA2     0.090000        1.0080           0
      2575 P8       7        ETHY     C2       CG321   -0.180000       12.0110           0
      2576 P8       7        ETHY     H21      HGA2     0.090000        1.0080           0
      2577 P8       7        ETHY     H23      HGA2     0.090000        1.0080           0
      2578 P8       8        ETHY     C1       CG321   -0.180000       12.0110           0
      2579 P8       8        ETHY     H11      HGA2     0.090000        1.0080           0
      2580 P8       8        ETHY     H13      HGA2     0.090000        1.0080           0
      2581 P8       8        ETHY     C2       CG321   -0.180000       12.0110           0
      2582 P8       8        ETHY     H21      HGA2     0.090000        1.0080           0
      2583 P8       8        ETHY     H23      HGA2     0.090000        1.0080           0
      2584 P8       9        ETHY     C1       CG321   -0.180000       12.0110           0
      2585 P8       9        ETHY     H11      HGA2     0.090000        1.0080           0
      2586 P8       9        ETHY     H13      HGA2     0.090000        1.0080           0
      2587 P8       9        ETHY     C2       CG321   -0.180000       12.0110           0
      2588 P8       9        ETHY     H21      HGA2     0.090000        1.0080           0
      2589 P8       9        ETHY     H23      HGA2     0.090000        1.0080           0
      2590 P8       10       ETHY     C1       CG321   -0.180000       12.0110           0
      2591 P8       10       ETHY     H11      HGA2     0.090000        1.0080           0
      2592 P8       10       ETHY     H13      HGA2     0.090000        1.0080           0
      2593 P8       10       ETHY     C2       CG321   -0.180000       12.0110           0
      2594 P8       10       ETHY     H21      HGA2     0.090000        1.0080           0
      2595 P8       10       ETHY     H23      HGA2     0.090000        1.0080           0
      2596 P8       11       ETHY     C1       CG321   -0.180000       12.0110           0
      2597 P8       11       ETHY     H11      HGA2     0.090000        1.0080           0
      2598 P8       11       ETHY     H13      HGA2     0.090000        1.0080           0
      2599 P8       11       ETHY     C2       CG321   -0.180000       12.0110           0
      2600 P8       11       ETHY     H21      HGA2     0.090000        1.0080           0
      2601 P8       11       ETHY     H23      HGA2     0.090000        1.0080           0
      2602 P8       12       ETHY     C1       CG321   -0.180000       12.0110           0
      2603 P8       12       ETHY     H11      HGA2     0.090000        1.0080           0
      2604 P8       12       ETHY     H13      HGA2     0.090000        1.0080           0
      2605 P8       12       ETHY     C2       CG321   -0.180000       12.0110           0
      2606 P8       12       ETHY     H21      HGA2     0.090000        1.0080           0
      2607 P8       12       ETHY     H23      HGA2     0.090000        1.0080           0
      2608 P8       13       ETHY     C1       CG321   -0.180000       12.0110           0
      2609 P8       13       ETHY     H11      HGA2     0.090000        1.0080           0
      2610 P8       13       ETHY     H13      HGA2     0.090000        1.0080           0
      2611 P8       13       ETHY     C2       CG321   -0.180000       12.0110           0
      2612 P8       13       ETHY     H21      HGA2     0.090000        1.0080           0
      2613 P8       13       ETHY     H23      HGA2     0.090000        1.0080           0
      2614 P8       14       ETHY     C1       CG321   -0.180000       12.0110           0
      2615 P8       14       ETHY     H11      HGA2     0.090000        1.0080           0
      2616 P8       14       ETHY     H13      HGA2     0.090000        1.0080           0
      2617 P8       14       ETHY     C2       CG321   -0.180000       12.0110           0
      2618 P8       14       ETHY     H21      HGA2     0.090000        1.0080           0
      2619 P8       14       ETHY     H23      HGA2     0.090000        1.0080           0
      2620 P8       15       ETHY     C1       CG321   -0.180000       12.0110           0
      2621 P8       15       ETHY     H11      HGA2     0.090000        1.0080           0
      2622 P8       15       ETHY     H13      HGA2     0.090000        1.0080           0
      2623 P8       15       ETHY     C2       CG321   -0.180000       12.0110           0
      2624 P8       15       ETHY     H21      HGA2     0.090000        1.0080           0
      2625 P8       15       ETHY     H23      HGA2     0.090000        1.0080           0
      2626 P8       16       ETHY     C1       CG321   -0.180000       12.0110           0
      2627 P8       16       ETHY     H11      HGA2     0.090000        1.0080           0
      2628 P8       16       ETHY     H13      HGA2     0.090000        1.0080           0
      2629 P8       16       ETHY     C2       CG321   -0.180000       12.0110           0
      2630 P8       16       ETHY     H21      HGA2     0.090000        1.0080           0
      2631 P8       16       ETHY     H23      HGA2     0.090000        1.0080           0
      2632 P8       17       ETHY     C1       CG321   -0.180000       12.0110           0
      2633 P8       17       ETHY     H11      HGA2     0.090000        1.0080           0
      2634 P8       17       ETHY     H13      HGA2     0.090000        1.0080           0
      2635 P8       17       ETHY     C2       CG321   -0.180000       12.0110           0
      2636 P8       17       ETHY     H21      HGA2     0.090000        1.0080           0
      2637 P8       17       ETHY     H23      HGA2     0.090000        1.0080           0
      2638 P8       18       ETHY     C1       CG321   -0.180000       12.0110           0
      2639 P8       18       ETHY     H11      HGA2     0.090000        1.0080           0
      2640 P8       18       ETHY     H13      HGA2     0.090000        1.0080           0
      2641 P8       18       ETHY     C2       CG321   -0.180000       12.0110           0
      2642 P8       18       ETHY     H21      HGA2     0.090000        1.0080           0
      2643 P8       18       ETHY     H23      HGA2     0.090000        1.0080           0
      2644 P8       19       ETHY     C1       CG321   -0.180000       12.0110           0
      2645 P8       19       ETHY     H11      HGA2     0.090000        1.0080           0
      2646 P8       19       ETHY     H13      HGA2     0.090000        1.0080           0
      2647 P8       19       ETHY     C2       CG321   -0.180000       12.0110           0
      2648 P8       19       ETHY     H21      HGA2     0.090000        1.0080           0
      2649 P8       19       ETHY     H23      HGA2     0.090000        1.0080           0
      2650 P8       20       ETHY     C1       CG321   -0.180000       12.0110           0
      2651 P8       20       ETHY     H11      HGA2     0.090000        1.0080           0
      2652 P8       20       ETHY     H13      HGA2     0.090000        1.0080           0
      2653 P8       20       ETHY     C2       CG321   -0.180000       12.0110           0
      2654 P8       20       ETHY     H21      HGA2     0.090000        1.0080           0
      2655 P8       20       ETHY     H23      HGA2     0.090000        1.0080           0
      2656 P8       21       ETHY     C1       CG321   -0.180000       12.0110           0
      2657 P8       21       ETHY     H11      HGA2     0.090000        1.0080           0
      2658 P8       21       ETHY     H13      HGA2     0.090000        1.0080           0
      2659 P8       21       ETHY     C2       CG321   -0.180000       12.0110           0
      2660 P8       21       ETHY     H21      HGA2     0.090000        1.0080           0
      2661 P8       21       ETHY     H23      HGA2     0.090000        1.0080           0
      2662 P8       22       ETHY     C1       CG321   -0.180000       12.0110           0
      2663 P8       22       ETHY     H11      HGA2     0.090000        1.0080           0
      2664 P8       22       ETHY     H13      HGA2     0.090000        1.0080           0
      2665 P8       22       ETHY     C2       CG321   -0.180000       12.0110           0
      2666 P8       22       ETHY     H21      HGA2     0.090000        1.0080           0
      2667 P8       22       ETHY     H23      HGA2     0.090000        1.0080           0
      2668 P8       23       ETHY     C1       CG321   -0.180000       12.0110           0
      2669 P8       23       ETHY     H11      HGA2     0.090000        1.0080           0
      2670 P8       23       ETHY     H13      HGA2     0.090000        1.0080           0
      2671 P8       23       ETHY     C2       CG321   -0.180000       12.0110           0
      2672 P8       23       ETHY     H21      HGA2     0.090000        1.0080           0
      2673 P8       23       ETHY     H23      HGA2     0.090000        1.0080           0
      2674 P8       24       ETHY     C1       CG321   -0.180000       12.0110           0
      2675 P8       24       ETHY     H11      HGA2     0.090000        1.0080           0
      2676 P8       24       ETHY     H13      HGA2     0.090000        1.0080           0
      2677 P8       24       ETHY     C2       CG321   -0.180000       12.0110           0
      2678 P8       24       ETHY     H21      HGA2     0.090000        1.0080           0
      2679 P8       24       ETHY     H23      HGA2     0.090000        1.0080           0
      2680 P8       25       ETHY     C1       CG321   -0.180000       12.0110           0
      2681 P8       25       ETHY     H11      HGA2     0.090000        1.0080           0
      2682 P8       25       ETHY     H13      HGA2     0.090000        1.0080           0
      2683 P8       25       ETHY     C2       CG321   -0.180000       12.0110           0
      2684 P8       25       ETHY     H21      HGA2     0.090000        1.0080           0
      2685 P8       25       ETHY     H23      HGA2     0.090000        1.0080           0
      2686 P8       26       ETHY     C1       CG321   -0.180000       12.0110           0
      2687 P8       26       ETHY     H11      HGA2     0.090000        1.0080           0
      2688 P8       26       ETHY     H13      HGA2     0.090000        1.0080           0
      2689 P8       26       ETHY     C2       CG321   -0.180000       12.0110           0
      2690 P8       26       ETHY     H21      HGA2     0.090000        1.0080           0
      2691 P8       26       ETHY     H23      HGA2     0.090000        1.0080           0
      2692 P8       27       ETHY     C1       CG321   -0.180000       12.0110           0
      2693 P8       27       ETHY     H11      HGA2     0.090000        1.0080           0
      2694 P8       27       ETHY     H13      HGA2     0.090000        1.0080           0
      2695 P8       27       ETHY     C2       CG321   -0.180000       12.0110           0
      2696 P8       27       ETHY     H21      HGA2     0.090000        1.0080           0
      2697 P8       27       ETHY     H23      HGA2     0.090000        1.0080           0
      2698 P8       28       ETHY     C1       CG321   -0.180000       12.0110           0
      2699 P8       28       ETHY     H11      HGA2     0.090000        1.0080           0
      2700 P8       28       ETHY     H13      HGA2     0.090000        1.0080           0
      2701 P8       28       ETHY     C2       CG321   -0.180000       12.0110           0
      2702 P8       28       ETHY     H21      HGA2     0.090000        1.0080           0
      2703 P8       28       ETHY     H23      HGA2     0.090000        1.0080           0
      2704 P8       29       ETHY     C1       CG321   -0.180000       12.0110           0
      2705 P8       29       ETHY     H11      HGA2     0.090000        1.0080           0
      2706 P8       29       ETHY     H13      HGA2     0.090000        1.0080           0
      2707 P8       29       ETHY     C2       CG321   -0.180000       12.0110           0
      2708 P8       29       ETHY     H21      HGA2     0.090000        1.0080           0
      2709 P8       29       ETHY     H23      HGA2     0.090000        1.0080           0
      2710 P8       30       ETHY     C1       CG321   -0.180000       12.0110           0
      2711 P8       30       ETHY     H11      HGA2     0.090000        1.0080           0
      2712 P8       30       ETHY     H13      HGA2     0.090000        1.0080           0
      2713 P8       30       ETHY     C2       CG321   -0.180000       12.0110           0
      2714 P8       30       ETHY     H21      HGA2     0.090000        1.0080           0
      2715 P8       30       ETHY     H23      HGA2     0.090000        1.0080           0
      2716 P8       31       ETHY     C1       CG321   -0.180000       12.0110           0
      2717 P8       31       ETHY     H11      HGA2     0.090000        1.0080           0
      2718 P8       31       ETHY     H13      HGA2     0.090000        1.0080           0
      2719 P8       31       ETHY     C2       CG321   -0.180000       12.0110           0
      2720 P8       31       ETHY     H21      HGA2     0.090000        1.0080           0
      2721 P8       31       ETHY     H23      HGA2     0.090000        1.0080           0
      2722 P8       32       ETHY     C1       CG321   -0.180000       12.0110           0
      2723 P8       32       ETHY     H11      HGA2     0.090000        1.0080           0
      2724 P8       32       ETHY     H13      HGA2     0.090000        1.0080           0
      2725 P8       32       ETHY     C2       CG321   -0.180000       12.0110           0
      2726 P8       32       ETHY     H21      HGA2     0.090000        1.0080           0
      2727 P8       32       ETHY     H23      HGA2     0.090000        1.0080           0
      2728 P8       33       ETHY     C1       CG321   -0.180000       12.0110           0
      2729 P8       33       ETHY     H11      HGA2     0.090000        1.0080           0
      2730 P8       33       ETHY     H13      HGA2     0.090000        1.0080           0
      2731 P8       33       ETHY     C2       CG321   -0.180000       12.0110           0
      2732 P8       33       ETHY     H21      HGA2     0.090000        1.0080           0
      2733 P8       33       ETHY     H23      HGA2     0.090000        1.0080           0
      2734 P8       34       ETHY     C1       CG321   -0.180000       12.0110           0
      2735 P8       34       ETHY     H11      HGA2     0.090000        1.0080           0
      2736 P8       34       ETHY     H13      HGA2     0.090000        1.0080           0
      2737 P8       34       ETHY     C2       CG321   -0.180000       12.0110           0
      2738 P8       34       ETHY     H21      HGA2     0.090000        1.0080           0
      2739 P8       34       ETHY     H23      HGA2     0.090000        1.0080           0
      2740 P8       35       ETHY     C1       CG321   -0.180000       12.0110           0
      2741 P8       35       ETHY     H11      HGA2     0.090000        1.0080           0
      2742 P8       35       ETHY     H13      HGA2     0.090000        1.0080           0
      2743 P8       35       ETHY     C2       CG321   -0.180000       12.0110           0
      2744 P8       35       ETHY     H21      HGA2     0.090000        1.0080           0
      2745 P8       35       ETHY     H23      HGA2     0.090000        1.0080           0
      2746 P8       36       ETHY     C1       CG321   -0.180000       12.0110           0
      2747 P8       36       ETHY     H11      HGA2     0.090000        1.0080           0
      2748 P8       36       ETHY     H13      HGA2     0.090000        1.0080           0
      2749 P8       36       ETHY     C2       CG321   -0.180000       12.0110           0
      2750 P8       36       ETHY     H21      HGA2     0.090000        1.0080           0
      2751 P8       36       ETHY     H23      HGA2     0.090000        1.0080           0
      2752 P8       37       ETHY     C1       CG321   -0.180000       12.0110           0
      2753 P8       37       ETHY     H11      HGA2     0.090000        1.0080           0
      2754 P8       37       ETHY     H13      HGA2     0.090000        1.0080           0
      2755 P8       37       ETHY     C2       CG321   -0.180000       12.0110           0
      2756 P8       37       ETHY     H21      HGA2     0.090000        1.0080           0
      2757 P8       37       ETHY     H23      HGA2     0.090000        1.0080           0
      2758 P8       38       ETHY     C1       CG321   -0.180000       12.0110           0
      2759 P8       38       ETHY     H11      HGA2     0.090000        1.0080           0
      2760 P8       38       ETHY     H13      HGA2     0.090000        1.0080           0
      2761 P8       38       ETHY     C2       CG321   -0.180000       12.0110           0
      2762 P8       38       ETHY     H21      HGA2     0.090000        1.0080           0
      2763 P8       38       ETHY     H23      HGA2     0.090000        1.0080           0
      2764 P8       39       ETHY     C1       CG321   -0.180000       12.0110           0
      2765 P8       39       ETHY     H11      HGA2     0.090000        1.0080           0
      2766 P8       39       ETHY     H13      HGA2     0.090000        1.0080           0
      2767 P8       39       ETHY     C2       CG321   -0.180000       12.0110           0
      2768 P8       39       ETHY     H21      HGA2     0.090000        1.0080           0
      2769 P8       39       ETHY     H23      HGA2     0.090000        1.0080           0
      2770 P8       40       ETHY     C1       CG321   -0.180000       12.0110           0
      2771 P8       40       ETHY     H11      HGA2     0.090000        1.0080           0
      2772 P8       40       ETHY     H13      HGA2     0.090000        1.0080           0
      2773 P8       40       ETHY     C2       CG321   -0.180000       12.0110           0
      2774 P8       40       ETHY     H21      HGA2     0.090000        1.0080           0
      2775 P8       40       ETHY     H23      HGA2     0.090000        1.0080           0
      2776 P8       41       ETHY     C1       CG321   -0.180000       12.0110           0
      2777 P8       41       ETHY     H11      HGA2     0.090000        1.0080           0
      2778 P8       41       ETHY     H13      HGA2     0.090000        1.0080           0
      2779 P8       41       ETHY     C2       CG321   -0.180000       12.0110           0
      2780 P8       41       ETHY     H21      HGA2     0.090000        1.0080           0
      2781 P8       41       ETHY     H23      HGA2     0.090000        1.0080           0
      2782 P8       42       ETHY     C1       CG321   -0.180000       12.0110           0
      2783 P8       42       ETHY     H11      HGA2     0.090000        1.0080           0
      2784 P8       42       ETHY     H13      HGA2     0.090000        1.0080           0
      2785 P8       42       ETHY     C2       CG321   -0.180000       12.0110           0
      2786 P8       42       ETHY     H21      HGA2     0.090000        1.0080           0
      2787 P8       42       ETHY     H23      HGA2     0.090000        1.0080           0
      2788 P8       43       ETHY     C1       CG321   -0.180000       12.0110           0
      2789 P8       43       ETHY     H11      HGA2     0.090000        1.0080           0
      2790 P8       43       ETHY     H13      HGA2     0.090000        1.0080           0
      2791 P8       43       ETHY     C2       CG321   -0.180000       12.0110           0
      2792 P8       43       ETHY     H21      HGA2     0.090000        1.0080           0
      2793 P8       43       ETHY     H23      HGA2     0.090000        1.0080           0
      2794 P8       44       ETHY     C1       CG321   -0.180000       12.0110           0
      2795 P8       44       ETHY     H11      HGA2     0.090000        1.0080           0
      2796 P8       44       ETHY     H13      HGA2     0.090000        1.0080           0
      2797 P8       44       ETHY     C2       CG321   -0.180000       12.0110           0
      2798 P8       44       ETHY     H21      HGA2     0.090000        1.0080           0
      2799 P8       44       ETHY     H23      HGA2     0.090000        1.0080           0
      2800 P8       45       ETHY     C1       CG321   -0.180000       12.0110           0
      2801 P8       45       ETHY     H11      HGA2     0.090000        1.0080           0
      2802 P8       45       ETHY     H13      HGA2     0.090000        1.0080           0
      2803 P8       45       ETHY     C2       CG321   -0.180000       12.0110           0
      2804 P8       45       ETHY     H21      HGA2     0.090000        1.0080           0
      2805 P8       45       ETHY     H23      HGA2     0.090000        1.0080           0
      2806 P8       46       ETHY     C1       CG321   -0.180000       12.0110           0
      2807 P8       46       ETHY     H11      HGA2     0.090000        1.0080           0
      2808 P8       46       ETHY     H13      HGA2     0.090000        1.0080           0
      2809 P8       46       ETHY     C2       CG321   -0.180000       12.0110           0
      2810 P8       46       ETHY     H21      HGA2     0.090000        1.0080           0
      2811 P8       46       ETHY     H23      HGA2     0.090000        1.0080           0
      2812 P8       47       ETHY     C1       CG321   -0.180000       12.0110           0
      2813 P8       47       ETHY     H11      HGA2     0.090000        1.0080           0
      2814 P8       47       ETHY     H13      HGA2     0.090000        1.0080           0
      2815 P8       47       ETHY     C2       CG321   -0.180000       12.0110           0
      2816 P8       47       ETHY     H21      HGA2     0.090000        1.0080           0
      2817 P8       47       ETHY     H23      HGA2     0.090000        1.0080           0
      2818 P8       48       ETHY     C1       CG321   -0.180000       12.0110           0
      2819 P8       48       ETHY     H11      HGA2     0.090000        1.0080           0
      2820 P8       48       ETHY     H13      HGA2     0.090000        1.0080           0
      2821 P8       48       ETHY     C2       CG321   -0.180000       12.0110           0
      2822 P8       48       ETHY     H21      HGA2     0.090000        1.0080           0
      2823 P8       48       ETHY     H23      HGA2     0.090000        1.0080           0
      2824 P8       49       ETHY     C1       CG321   -0.180000       12.0110           0
      2825 P8       49       ETHY     H11      HGA2     0.090000        1.0080           0
      2826 P8       49       ETHY     H13      HGA2     0.090000        1.0080           0
      2827 P8       49       ETHY     C2       CG321   -0.180000       12.0110           0
      2828 P8       49       ETHY     H21      HGA2     0.090000        1.0080           0
      2829 P8       49       ETHY     H23      HGA2     0.090000        1.0080           0
      2830 P8       50       ETHY     C1       CG321   -0.180000       12.0110           0
      2831 P8       50       ETHY     H11      HGA2     0.090000        1.0080           0
      2832 P8       50       ETHY     H13      HGA2     0.090000        1.0080           0
      2833 P8       50       ETHY     C2       CG321   -0.180000       12.0110           0
      2834 P8       50       ETHY     H21      HGA2     0.090000        1.0080           0
      2835 P8       50       ETHY     H23      HGA2     0.090000        1.0080           0
      2836 P8       51       ETHY     C1       CG321   -0.180000       12.0110           0
      2837 P8       51       ETHY     H11      HGA2     0.090000        1.0080           0
      2838 P8       51       ETHY     H13      HGA2     0.090000        1.0080           0
      2839 P8       51       ETHY     C2       CG321   -0.180000       12.0110           0
      2840 P8       51       ETHY     H21      HGA2     0.090000        1.0080           0
      2841 P8       51       ETHY     H23      HGA2     0.090000        1.0080           0
      2842 P8       52       ETHY     C1       CG321   -0.180000       12.0110           0
      2843 P8       52       ETHY     H11      HGA2     0.090000        1.0080           0
      2844 P8       52       ETHY     H13      HGA2     0.090000        1.0080           0
      2845 P8       52       ETHY     C2       CG321   -0.180000       12.0110           0
      2846 P8       52       ETHY     H21      HGA2     0.090000        1.0080           0
      2847 P8       52       ETHY     H23      HGA2     0.090000        1.0080           0
      2848 P8       53       ETHY     C1       CG321   -0.180000       12.0110           0
      2849 P8       53       ETHY     H11      HGA2     0.090000        1.0080           0
      2850 P8       53       ETHY     H13      HGA2     0.090000        1.0080           0
      2851 P8       53       ETHY     C2       CG321   -0.180000       12.0110           0
      2852 P8       53       ETHY     H21      HGA2     0.090000        1.0080           0
      2853 P8       53       ETHY     H23      HGA2     0.090000        1.0080           0
      2854 P8       54       ETHY     C1       CG321   -0.180000       12.0110           0
      2855 P8       54       ETHY     H11      HGA2     0.090000        1.0080           0
      2856 P8       54       ETHY     H13      HGA2     0.090000        1.0080           0
      2857 P8       54       ETHY     C2       CG321   -0.180000       12.0110           0
      2858 P8       54       ETHY     H21      HGA2     0.090000        1.0080           0
      2859 P8       54       ETHY     H23      HGA2     0.090000        1.0080           0
      2860 P8       55       ETHY     C1       CG321   -0.180000       12.0110           0
      2861 P8       55       ETHY     H11      HGA2     0.090000        1.0080           0
      2862 P8       55       ETHY     H13      HGA2     0.090000        1.0080           0
      2863 P8       55       ETHY     C2       CG321   -0.180000       12.0110           0
      2864 P8       55       ETHY     H21      HGA2     0.090000        1.0080           0
      2865 P8       55       ETHY     H23      HGA2     0.090000        1.0080           0
      2866 P8       56       ETHY     C1       CG321   -0.180000       12.0110           0
      2867 P8       56       ETHY     H11      HGA2     0.090000        1.0080           0
      2868 P8       56       ETHY     H13      HGA2     0.090000        1.0080           0
      2869 P8       56       ETHY     C2       CG321   -0.180000       12.0110           0
      2870 P8       56       ETHY     H21      HGA2     0.090000        1.0080           0
      2871 P8       56       ETHY     H23      HGA2     0.090000        1.0080           0
      2872 P8       57       ETHY     C1       CG321   -0.180000       12.0110           0
      2873 P8       57       ETHY     H11      HGA2     0.090000        1.0080           0
      2874 P8       57       ETHY     H13      HGA2     0.090000        1.0080           0
      2875 P8       57       ETHY     C2       CG321   -0.180000       12.0110           0
      2876 P8       57       ETHY     H21      HGA2     0.090000        1.0080           0
      2877 P8       57       ETHY     H23      HGA2     0.090000        1.0080           0
      2878 P8       58       ETHY     C1       CG321   -0.180000       12.0110           0
      2879 P8       58       ETHY     H11      HGA2     0.090000        1.0080           0
      2880 P8       58       ETHY     H13      HGA2     0.090000        1.0080           0
      2881 P8       58       ETHY     C2       CG321   -0.180000       12.0110           0
      2882 P8       58       ETHY     H21      HGA2     0.090000        1.0080           0
      2883 P8       58       ETHY     H23      HGA2     0.090000        1.0080           0
      2884 P8       59       ETHY     C1       CG321   -0.180000       12.0110           0
      2885 P8       59       ETHY     H11      HGA2     0.090000        1.0080           0
      2886 P8       59       ETHY     H13      HGA2     0.090000        1.0080           0
      2887 P8       59       ETHY     C2       CG321   -0.180000       12.0110           0
      2888 P8       59       ETHY     H21      HGA2     0.090000        1.0080           0
      2889 P8       59       ETHY     H23      HGA2     0.090000        1.0080           0
      2890 P8       60       ETHY     C1       CG321   -0.180000       12.0110           0
      2891 P8       60       ETHY     H11      HGA2     0.090000        1.0080           0
      2892 P8       60       ETHY     H13      HGA2     0.090000        1.0080           0
      2893 P8       60       ETHY     C2       CG331   -0.270000       12.0110           0
      2894 P8       60       ETHY     H22      HGA3     0.090000        1.0080           0
      2895 P8       60       ETHY     H21      HGA3     0.090000        1.0080           0
      2896 P8       60       ETHY     H23      HGA3     0.090000        1.0080           0
      2897 P9       1        ETHY     C1       CG331   -0.270000       12.0110           0
      2898 P9       1        ETHY     H11      HGA3     0.090000        1.0080           0
      2899 P9       1        ETHY     H12      HGA3     0.090000        1.0080           0
      2900 P9       1        ETHY     H13      HGA3     0.090000        1.0080           0
      2901 P9       1        ETHY     C2       CG321   -0.180000       12.0110           0
      2902 P9       1        ETHY     H21      HGA2     0.090000        1.0080           0
      2903 P9       1        ETHY     H23      HGA2     0.090000        1.0080           0
      2904 P9       2        ETHY     C1       CG321   -0.180000       12.0110           0
      2905 P9       2        ETHY     H11      HGA2     0.090000        1.0080           0
      2906 P9       2        ETHY     H13      HGA2     0.090000        1.0080           0
      2907 P9       2        ETHY     C2       CG321   -0.180000       12.0110           0
      2908 P9       2        ETHY     H21      HGA2     0.090000        1.0080           0
      2909 P9       2        ETHY     H23      HGA2     0.090000        1.0080           0
      2910 P9       3        ETHY     C1       CG321   -0.180000       12.0110           0
      2911 P9       3        ETHY     H11      HGA2     0.090000        1.0080           0
      2912 P9       3        ETHY     H13      HGA2     0.090000        1.0080           0
      2913 P9       3        ETHY     C2       CG321   -0.180000       12.0110           0
      2914 P9       3        ETHY     H21      HGA2     0.090000        1.0080           0
      2915 P9       3        ETHY     H23      HGA2     0.090000        1.0080           0
      2916 P9       4        ETHY     C1       CG321   -0.180000       12.0110           0
      2917 P9       4        ETHY     H11      HGA2     0.090000        1.0080           0
      2918 P9       4        ETHY     H13      HGA2     0.090000        1.0080           0
      2919 P9       4        ETHY     C2       CG321   -0.180000       12.0110           0
      2920 P9       4        ETHY     H21      HGA2     0.090000        1.0080           0
      2921 P9       4        ETHY     H23      HGA2     0.090000        1.0080           0
      2922 P9       5        ETHY     C1       CG321   -0.180000       12.0110           0
      2923 P9       5        ETHY     H11      HGA2     0.090000        1.0080           0
      2924 P9       5        ETHY     H13      HGA2     0.090000        1.0080           0
      2925 P9       5        ETHY     C2       CG321   -0.180000       12.0110           0
      2926 P9       5        ETHY     H21      HGA2     0.090000        1.0080           0
      2927 P9       5        ETHY     H23      HGA2     0.090000        1.0080           0
      2928 P9       6        ETHY     C1       CG321   -0.180000       12.0110           0
      2929 P9       6        ETHY     H11      HGA2     0.090000        1.0080           0
      2930 P9       6        ETHY     H13      HGA2     0.090000        1.0080           0
      2931 P9       6        ETHY     C2       CG321   -0.180000       12.0110           0
      2932 P9       6        ETHY     H21      HGA2     0.090000        1.0080           0
      2933 P9       6        ETHY     H23      HGA2     0.090000        1.0080           0
      2934 P9       7        ETHY     C1       CG321   -0.180000       12.0110           0
      2935 P9       7        ETHY     H11      HGA2     0.090000        1.0080           0
      2936 P9       7        ETHY     H13      HGA2     0.090000        1.0080           0
      2937 P9       7        ETHY     C2       CG321   -0.180000       12.0110           0
      2938 P9       7        ETHY     H21      HGA2     0.090000        1.0080           0
      2939 P9       7        ETHY     H23      HGA2     0.090000        1.0080           0
      2940 P9       8        ETHY     C1       CG321   -0.180000       12.0110           0
      2941 P9       8        ETHY     H11      HGA2     0.090000        1.0080           0
      2942 P9       8        ETHY     H13      HGA2     0.090000        1.0080           0
      2943 P9       8        ETHY     C2       CG321   -0.180000       12.0110           0
      2944 P9       8        ETHY     H21      HGA2     0.090000        1.0080           0
      2945 P9       8        ETHY     H23      HGA2     0.090000        1.0080           0
      2946 P9       9        ETHY     C1       CG321   -0.180000       12.0110           0
      2947 P9       9        ETHY     H11      HGA2     0.090000        1.0080           0
      2948 P9       9        ETHY     H13      HGA2     0.090000        1.0080           0
      2949 P9       9        ETHY     C2       CG321   -0.180000       12.0110           0
      2950 P9       9        ETHY     H21      HGA2     0.090000        1.0080           0
      2951 P9       9        ETHY     H23      HGA2     0.090000        1.0080           0
      2952 P9       10       ETHY     C1       CG321   -0.180000       12.0110           0
      2953 P9       10       ETHY     H11      HGA2     0.090000        1.0080           0
      2954 P9       10       ETHY     H13      HGA2     0.090000        1.0080           0
      2955 P9       10       ETHY     C2       CG321   -0.180000       12.0110           0
      2956 P9       10       ETHY     H21      HGA2     0.090000        1.0080           0
      2957 P9       10       ETHY     H23      HGA2     0.090000        1.0080           0
      2958 P9       11       ETHY     C1       CG321   -0.180000       12.0110           0
      2959 P9       11       ETHY     H11      HGA2     0.090000        1.0080           0
      2960 P9       11       ETHY     H13      HGA2     0.090000        1.0080           0
      2961 P9       11       ETHY     C2       CG321   -0.180000       12.0110           0
      2962 P9       11       ETHY     H21      HGA2     0.090000        1.0080           0
      2963 P9       11       ETHY     H23      HGA2     0.090000        1.0080           0
      2964 P9       12       ETHY     C1       CG321   -0.180000       12.0110           0
      2965 P9       12       ETHY     H11      HGA2     0.090000        1.0080           0
      2966 P9       12       ETHY     H13      HGA2     0.090000        1.0080           0
      2967 P9       12       ETHY     C2       CG321   -0.180000       12.0110           0
      2968 P9       12       ETHY     H21      HGA2     0.090000        1.0080           0
      2969 P9       12       ETHY     H23      HGA2     0.090000        1.0080           0
      2970 P9       13       ETHY     C1       CG321   -0.180000       12.0110           0
      2971 P9       13       ETHY     H11      HGA2     0.090000        1.0080           0
      2972 P9       13       ETHY     H13      HGA2     0.090000        1.0080           0
      2973 P9       13       ETHY     C2       CG321   -0.180000       12.0110           0
      2974 P9       13       ETHY     H21      HGA2     0.090000        1.0080           0
      2975 P9       13       ETHY     H23      HGA2     0.090000        1.0080           0
      2976 P9       14       ETHY     C1       CG321   -0.180000       12.0110           0
      2977 P9       14       ETHY     H11      HGA2     0.090000        1.0080           0
      2978 P9       14       ETHY     H13      HGA2     0.090000        1.0080           0
      2979 P9       14       ETHY     C2       CG321   -0.180000       12.0110           0
      2980 P9       14       ETHY     H21      HGA2     0.090000        1.0080           0
      2981 P9       14       ETHY     H23      HGA2     0.090000        1.0080           0
      2982 P9       15       ETHY     C1       CG321   -0.180000       12.0110           0
      2983 P9       15       ETHY     H11      HGA2     0.090000        1.0080           0
      2984 P9       15       ETHY     H13      HGA2     0.090000        1.0080           0
      2985 P9       15       ETHY     C2       CG321   -0.180000       12.0110           0
      2986 P9       15       ETHY     H21      HGA2     0.090000        1.0080           0
      2987 P9       15       ETHY     H23      HGA2     0.090000        1.0080           0
      2988 P9       16       ETHY     C1       CG321   -0.180000       12.0110           0
      2989 P9       16       ETHY     H11      HGA2     0.090000        1.0080           0
      2990 P9       16       ETHY     H13      HGA2     0.090000        1.0080           0
      2991 P9       16       ETHY     C2       CG321   -0.180000       12.0110           0
      2992 P9       16       ETHY     H21      HGA2     0.090000        1.0080           0
      2993 P9       16       ETHY     H23      HGA2     0.090000        1.0080           0
      2994 P9       17       ETHY     C1       CG321   -0.180000       12.0110           0
      2995 P9       17       ETHY     H11      HGA2     0.090000        1.0080           0
      2996 P9       17       ETHY     H13      HGA2     0.090000        1.0080           0
      2997 P9       17       ETHY     C2       CG321   -0.180000       12.0110           0
      2998 P9       17       ETHY     H21      HGA2     0.090000        1.0080           0
      2999 P9       17       ETHY     H23      HGA2     0.090000        1.0080           0
      3000 P9       18       ETHY     C1       CG321   -0.180000       12.0110           0
      3001 P9       18       ETHY     H11      HGA2     0.090000        1.0080           0
      3002 P9       18       ETHY     H13      HGA2     0.090000        1.0080           0
      3003 P9       18       ETHY     C2       CG321   -0.180000       12.0110           0
      3004 P9       18       ETHY     H21      HGA2     0.090000        1.0080           0
      3005 P9       18       ETHY     H23      HGA2     0.090000        1.0080           0
      3006 P9       19       ETHY     C1       CG321   -0.180000       12.0110           0
      3007 P9       19       ETHY     H11      HGA2     0.090000        1.0080           0
      3008 P9       19       ETHY     H13      HGA2     0.090000        1.0080           0
      3009 P9       19       ETHY     C2       CG321   -0.180000       12.0110           0
      3010 P9       19       ETHY     H21      HGA2     0.090000        1.0080           0
      3011 P9       19       ETHY     H23      HGA2     0.090000        1.0080           0
      3012 P9       20       ETHY     C1       CG321   -0.180000       12.0110           0
      3013 P9       20       ETHY     H11      HGA2     0.090000        1.0080           0
      3014 P9       20       ETHY     H13      HGA2     0.090000        1.0080           0
      3015 P9       20       ETHY     C2       CG321   -0.180000       12.0110           0
      3016 P9       20       ETHY     H21      HGA2     0.090000        1.0080           0
      3017 P9       20       ETHY     H23      HGA2     0.090000        1.0080           0
      3018 P9       21       ETHY     C1       CG321   -0.180000       12.0110           0
      3019 P9       21       ETHY     H11      HGA2     0.090000        1.0080           0
      3020 P9       21       ETHY     H13      HGA2     0.090000        1.0080           0
      3021 P9       21       ETHY     C2       CG321   -0.180000       12.0110           0
      3022 P9       21       ETHY     H21      HGA2     0.090000        1.0080           0
      3023 P9       21       ETHY     H23      HGA2     0.090000        1.0080           0
      3024 P9       22       ETHY     C1       CG321   -0.180000       12.0110           0
      3025 P9       22       ETHY     H11      HGA2     0.090000        1.0080           0
      3026 P9       22       ETHY     H13      HGA2     0.090000        1.0080           0
      3027 P9       22       ETHY     C2       CG321   -0.180000       12.0110           0
      3028 P9       22       ETHY     H21      HGA2     0.090000        1.0080           0
      3029 P9       22       ETHY     H23      HGA2     0.090000        1.0080           0
      3030 P9       23       ETHY     C1       CG321   -0.180000       12.0110           0
      3031 P9       23       ETHY     H11      HGA2     0.090000        1.0080           0
      3032 P9       23       ETHY     H13      HGA2     0.090000        1.0080           0
      3033 P9       23       ETHY     C2       CG321   -0.180000       12.0110           0
      3034 P9       23       ETHY     H21      HGA2     0.090000        1.0080           0
      3035 P9       23       ETHY     H23      HGA2     0.090000        1.0080           0
      3036 P9       24       ETHY     C1       CG321   -0.180000       12.0110           0
      3037 P9       24       ETHY     H11      HGA2     0.090000        1.0080           0
      3038 P9       24       ETHY     H13      HGA2     0.090000        1.0080           0
      3039 P9       24       ETHY     C2       CG321   -0.180000       12.0110           0
      3040 P9       24       ETHY     H21      HGA2     0.090000        1.0080           0
      3041 P9       24       ETHY     H23      HGA2     0.090000        1.0080           0
      3042 P9       25       ETHY     C1       CG321   -0.180000       12.0110           0
      3043 P9       25       ETHY     H11      HGA2     0.090000        1.0080           0
      3044 P9       25       ETHY     H13      HGA2     0.090000        1.0080           0
      3045 P9       25       ETHY     C2       CG321   -0.180000       12.0110           0
      3046 P9       25       ETHY     H21      HGA2     0.090000        1.0080           0
      3047 P9       25       ETHY     H23      HGA2     0.090000        1.0080           0
      3048 P9       26       ETHY     C1       CG321   -0.180000       12.0110           0
      3049 P9       26       ETHY     H11      HGA2     0.090000        1.0080           0
      3050 P9       26       ETHY     H13      HGA2     0.090000        1.0080           0
      3051 P9       26       ETHY     C2       CG321   -0.180000       12.0110           0
      3052 P9       26       ETHY     H21      HGA2     0.090000        1.0080           0
      3053 P9       26       ETHY     H23      HGA2     0.090000        1.0080           0
      3054 P9       27       ETHY     C1       CG321   -0.180000       12.0110           0
      3055 P9       27       ETHY     H11      HGA2     0.090000        1.0080           0
      3056 P9       27       ETHY     H13      HGA2     0.090000        1.0080           0
      3057 P9       27       ETHY     C2       CG321   -0.180000       12.0110           0
      3058 P9       27       ETHY     H21      HGA2     0.090000        1.0080           0
      3059 P9       27       ETHY     H23      HGA2     0.090000        1.0080           0
      3060 P9       28       ETHY     C1       CG321   -0.180000       12.0110           0
      3061 P9       28       ETHY     H11      HGA2     0.090000        1.0080           0
      3062 P9       28       ETHY     H13      HGA2     0.090000        1.0080           0
      3063 P9       28       ETHY     C2       CG321   -0.180000       12.0110           0
      3064 P9       28       ETHY     H21      HGA2     0.090000        1.0080           0
      3065 P9       28       ETHY     H23      HGA2     0.090000        1.0080           0
      3066 P9       29       ETHY     C1       CG321   -0.180000       12.0110           0
      3067 P9       29       ETHY     H11      HGA2     0.090000        1.0080           0
      3068 P9       29       ETHY     H13      HGA2     0.090000        1.0080           0
      3069 P9       29       ETHY     C2       CG321   -0.180000       12.0110           0
      3070 P9       29       ETHY     H21      HGA2     0.090000        1.0080           0
      3071 P9       29       ETHY     H23      HGA2     0.090000        1.0080           0
      3072 P9       30       ETHY     C1       CG321   -0.180000       12.0110           0
      3073 P9       30       ETHY     H11      HGA2     0.090000        1.0080           0
      3074 P9       30       ETHY     H13      HGA2     0.090000        1.0080           0
      3075 P9       30       ETHY     C2       CG321   -0.180000       12.0110           0
      3076 P9       30       ETHY     H21      HGA2     0.090000        1.0080           0
      3077 P9       30       ETHY     H23      HGA2     0.090000        1.0080           0
      3078 P9       31       ETHY     C1       CG321   -0.180000       12.0110           0
      3079 P9       31       ETHY     H11      HGA2     0.090000        1.0080           0
      3080 P9       31       ETHY     H13      HGA2     0.090000        1.0080           0
      3081 P9       31       ETHY     C2       CG321   -0.180000       12.0110           0
      3082 P9       31       ETHY     H21      HGA2     0.090000        1.0080           0
      3083 P9       31       ETHY     H23      HGA2     0.090000        1.0080           0
      3084 P9       32       ETHY     C1       CG321   -0.180000       12.0110           0
      3085 P9       32       ETHY     H11      HGA2     0.090000        1.0080           0
      3086 P9       32       ETHY     H13      HGA2     0.090000        1.0080           0
      3087 P9       32       ETHY     C2       CG321   -0.180000       12.0110           0
      3088 P9       32       ETHY     H21      HGA2     0.090000        1.0080           0
      3089 P9       32       ETHY     H23      HGA2     0.090000        1.0080           0
      3090 P9       33       ETHY     C1       CG321   -0.180000       12.0110           0
      3091 P9       33       ETHY     H11      HGA2     0.090000        1.0080           0
      3092 P9       33       ETHY     H13      HGA2     0.090000        1.0080           0
      3093 P9       33       ETHY     C2       CG321   -0.180000       12.0110           0
      3094 P9       33       ETHY     H21      HGA2     0.090000        1.0080           0
      3095 P9       33       ETHY     H23      HGA2     0.090000        1.0080           0
      3096 P9       34       ETHY     C1       CG321   -0.180000       12.0110           0
      3097 P9       34       ETHY     H11      HGA2     0.090000        1.0080           0
      3098 P9       34       ETHY     H13      HGA2     0.090000        1.0080           0
      3099 P9       34       ETHY     C2       CG321   -0.180000       12.0110           0
      3100 P9       34       ETHY     H21      HGA2     0.090000        1.0080           0
      3101 P9       34       ETHY     H23      HGA2     0.090000        1.0080           0
      3102 P9       35       ETHY     C1       CG321   -0.180000       12.0110           0
      3103 P9       35       ETHY     H11      HGA2     0.090000        1.0080           0
      3104 P9       35       ETHY     H13      HGA2     0.090000        1.0080           0
      3105 P9       35       ETHY     C2       CG321   -0.180000       12.0110           0
      3106 P9       35       ETHY     H21      HGA2     0.090000        1.0080           0
      3107 P9       35       ETHY     H23      HGA2     0.090000        1.0080           0
      3108 P9       36       ETHY     C1       CG321   -0.180000       12.0110           0
      3109 P9       36       ETHY     H11      HGA2     0.090000        1.0080           0
      3110 P9       36       ETHY     H13      HGA2     0.090000        1.0080           0
      3111 P9       36       ETHY     C2       CG321   -0.180000       12.0110           0
      3112 P9       36       ETHY     H21      HGA2     0.090000        1.0080           0
      3113 P9       36       ETHY     H23      HGA2     0.090000        1.0080           0
      3114 P9       37       ETHY     C1       CG321   -0.180000       12.0110           0
      3115 P9       37       ETHY     H11      HGA2     0.090000        1.0080           0
      3116 P9       37       ETHY     H13      HGA2     0.090000        1.0080           0
      3117 P9       37       ETHY     C2       CG321   -0.180000       12.0110           0
      3118 P9       37       ETHY     H21      HGA2     0.090000        1.0080           0
      3119 P9       37       ETHY     H23      HGA2     0.090000        1.0080           0
      3120 P9       38       ETHY     C1       CG321   -0.180000       12.0110           0
      3121 P9       38       ETHY     H11      HGA2     0.090000        1.0080           0
      3122 P9       38       ETHY     H13      HGA2     0.090000        1.0080           0
      3123 P9       38       ETHY     C2       CG321   -0.180000       12.0110           0
      3124 P9       38       ETHY     H21      HGA2     0.090000        1.0080           0
      3125 P9       38       ETHY     H23      HGA2     0.090000        1.0080           0
      3126 P9       39       ETHY     C1       CG321   -0.180000       12.0110           0
      3127 P9       39       ETHY     H11      HGA2     0.090000        1.0080           0
      3128 P9       39       ETHY     H13      HGA2     0.090000        1.0080           0
      3129 P9       39       ETHY     C2       CG321   -0.180000       12.0110           0
      3130 P9       39       ETHY     H21      HGA2     0.090000        1.0080           0
      3131 P9       39       ETHY     H23      HGA2     0.090000        1.0080           0
      3132 P9       40       ETHY     C1       CG321   -0.180000       12.0110           0
      3133 P9       40       ETHY     H11      HGA2     0.090000        1.0080           0
      3134 P9       40       ETHY     H13      HGA2     0.090000        1.0080           0
      3135 P9       40       ETHY     C2       CG321   -0.180000       12.0110           0
      3136 P9       40       ETHY     H21      HGA2     0.090000        1.0080           0
      3137 P9       40       ETHY     H23      HGA2     0.090000        1.0080           0
      3138 P9       41       ETHY     C1       CG321   -0.180000       12.0110           0
      3139 P9       41       ETHY     H11      HGA2     0.090000        1.0080           0
      3140 P9       41       ETHY     H13      HGA2     0.090000        1.0080           0
      3141 P9       41       ETHY     C2       CG321   -0.180000       12.0110           0
      3142 P9       41       ETHY     H21      HGA2     0.090000        1.0080           0
      3143 P9       41       ETHY     H23      HGA2     0.090000        1.0080           0
      3144 P9       42       ETHY     C1       CG321   -0.180000       12.0110           0
      3145 P9       42       ETHY     H11      HGA2     0.090000        1.0080           0
      3146 P9       42       ETHY     H13      HGA2     0.090000        1.0080           0
      3147 P9       42       ETHY     C2       CG321   -0.180000       12.0110           0
      3148 P9       42       ETHY     H21      HGA2     0.090000        1.0080           0
      3149 P9       42       ETHY     H23      HGA2     0.090000        1.0080           0
      3150 P9       43       ETHY     C1       CG321   -0.180000       12.0110           0
      3151 P9       43       ETHY     H11      HGA2     0.090000        1.0080           0
      3152 P9       43       ETHY     H13      HGA2     0.090000        1.0080           0
      3153 P9       43       ETHY     C2       CG321   -0.180000       12.0110           0
      3154 P9       43       ETHY     H21      HGA2     0.090000        1.0080           0
      3155 P9       43       ETHY     H23      HGA2     0.090000        1.0080           0
      3156 P9       44       ETHY     C1       CG321   -0.180000       12.0110           0
      3157 P9       44       ETHY     H11      HGA2     0.090000        1.0080           0
      3158 P9       44       ETHY     H13      HGA2     0.090000        1.0080           0
      3159 P9       44       ETHY     C2       CG321   -0.180000       12.0110           0
      3160 P9       44       ETHY     H21      HGA2     0.090000        1.0080           0
      3161 P9       44       ETHY     H23      HGA2     0.090000        1.0080           0
      3162 P9       45       ETHY     C1       CG321   -0.180000       12.0110           0
      3163 P9       45       ETHY     H11      HGA2     0.090000        1.0080           0
      3164 P9       45       ETHY     H13      HGA2     0.090000        1.0080           0
      3165 P9       45       ETHY     C2       CG321   -0.180000       12.0110           0
      3166 P9       45       ETHY     H21      HGA2     0.090000        1.0080           0
      3167 P9       45       ETHY     H23      HGA2     0.090000        1.0080           0
      3168 P9       46       ETHY     C1       CG321   -0.180000       12.0110           0
      3169 P9       46       ETHY     H11      HGA2     0.090000        1.0080           0
      3170 P9       46       ETHY     H13      HGA2     0.090000        1.0080           0
      3171 P9       46       ETHY     C2       CG321   -0.180000       12.0110           0
      3172 P9       46       ETHY     H21      HGA2     0.090000        1.0080           0
      3173 P9       46       ETHY     H23      HGA2     0.090000        1.0080           0
      3174 P9       47       ETHY     C1       CG321   -0.180000       12.0110           0
      3175 P9       47       ETHY     H11      HGA2     0.090000        1.0080           0
      3176 P9       47       ETHY     H13      HGA2     0.090000        1.0080           0
      3177 P9       47       ETHY     C2       CG321   -0.180000       12.0110           0
      3178 P9       47       ETHY     H21      HGA2     0.090000        1.0080           0
      3179 P9       47       ETHY     H23      HGA2     0.090000        1.0080           0
      3180 P9       48       ETHY     C1       CG321   -0.180000       12.0110           0
      3181 P9       48       ETHY     H11      HGA2     0.090000        1.0080           0
      3182 P9       48       ETHY     H13      HGA2     0.090000        1.0080           0
      3183 P9       48       ETHY     C2       CG321   -0.180000       12.0110           0
      3184 P9       48       ETHY     H21      HGA2     0.090000        1.0080           0
      3185 P9       48       ETHY     H23      HGA2     0.090000        1.0080           0
      3186 P9       49       ETHY     C1       CG321   -0.180000       12.0110           0
      3187 P9       49       ETHY     H11      HGA2     0.090000        1.0080           0
      3188 P9       49       ETHY     H13      HGA2     0.090000        1.0080           0
      3189 P9       49       ETHY     C2       CG321   -0.180000       12.0110           0
      3190 P9       49       ETHY     H21      HGA2     0.090000        1.0080           0
      3191 P9       49       ETHY     H23      HGA2     0.090000        1.0080           0
      3192 P9       50       ETHY     C1       CG321   -0.180000       12.0110           0
      3193 P9       50       ETHY     H11      HGA2     0.090000        1.0080           0
      3194 P9       50       ETHY     H13      HGA2     0.090000        1.0080           0
      3195 P9       50       ETHY     C2       CG321   -0.180000       12.0110           0
      3196 P9       50       ETHY     H21      HGA2     0.090000        1.0080           0
      3197 P9       50       ETHY     H23      HGA2     0.090000        1.0080           0
      3198 P9       51       ETHY     C1       CG321   -0.180000       12.0110           0
      3199 P9       51       ETHY     H11      HGA2     0.090000        1.0080           0
      3200 P9       51       ETHY     H13      HGA2     0.090000        1.0080           0
      3201 P9       51       ETHY     C2       CG321   -0.180000       12.0110           0
      3202 P9       51       ETHY     H21      HGA2     0.090000        1.0080           0
      3203 P9       51       ETHY     H23      HGA2     0.090000        1.0080           0
      3204 P9       52       ETHY     C1       CG321   -0.180000       12.0110           0
      3205 P9       52       ETHY     H11      HGA2     0.090000        1.0080           0
      3206 P9       52       ETHY     H13      HGA2     0.090000        1.0080           0
      3207 P9       52       ETHY     C2       CG321   -0.180000       12.0110           0
      3208 P9       52       ETHY     H21      HGA2     0.090000        1.0080           0
      3209 P9       52       ETHY     H23      HGA2     0.090000        1.0080           0
      3210 P9       53       ETHY     C1       CG321   -0.180000       12.0110           0
      3211 P9       53       ETHY     H11      HGA2     0.090000        1.0080           0
      3212 P9       53       ETHY     H13      HGA2     0.090000        1.0080           0
      3213 P9       53       ETHY     C2       CG321   -0.180000       12.0110           0
      3214 P9       53       ETHY     H21      HGA2     0.090000        1.0080           0
      3215 P9       53       ETHY     H23      HGA2     0.090000        1.0080           0
      3216 P9       54       ETHY     C1       CG321   -0.180000       12.0110           0
      3217 P9       54       ETHY     H11      HGA2     0.090000        1.0080           0
      3218 P9       54       ETHY     H13      HGA2     0.090000        1.0080           0
      3219 P9       54       ETHY     C2       CG321   -0.180000       12.0110           0
      3220 P9       54       ETHY     H21      HGA2     0.090000        1.0080           0
      3221 P9       54       ETHY     H23      HGA2     0.090000        1.0080           0
      3222 P9       55       ETHY     C1       CG321   -0.180000       12.0110           0
      3223 P9       55       ETHY     H11      HGA2     0.090000        1.0080           0
      3224 P9       55       ETHY     H13      HGA2     0.090000        1.0080           0
      3225 P9       55       ETHY     C2       CG321   -0.180000       12.0110           0
      3226 P9       55       ETHY     H21      HGA2     0.090000        1.0080           0
      3227 P9       55       ETHY     H23      HGA2     0.090000        1.0080           0
      3228 P9       56       ETHY     C1       CG321   -0.180000       12.0110           0
      3229 P9       56       ETHY     H11      HGA2     0.090000        1.0080           0
      3230 P9       56       ETHY     H13      HGA2     0.090000        1.0080           0
      3231 P9       56       ETHY     C2       CG321   -0.180000       12.0110           0
      3232 P9       56       ETHY     H21      HGA2     0.090000        1.0080           0
      3233 P9       56       ETHY     H23      HGA2     0.090000        1.0080           0
      3234 P9       57       ETHY     C1       CG321   -0.180000       12.0110           0
      3235 P9       57       ETHY     H11      HGA2     0.090000        1.0080           0
      3236 P9       57       ETHY     H13      HGA2     0.090000        1.0080           0
      3237 P9       57       ETHY     C2       CG321   -0.180000       12.0110           0
      3238 P9       57       ETHY     H21      HGA2     0.090000        1.0080           0
      3239 P9       57       ETHY     H23      HGA2     0.090000        1.0080           0
      3240 P9       58       ETHY     C1       CG321   -0.180000       12.0110           0
      3241 P9       58       ETHY     H11      HGA2     0.090000        1.0080           0
      3242 P9       58       ETHY     H13      HGA2     0.090000        1.0080           0
      3243 P9       58       ETHY     C2       CG321   -0.180000       12.0110           0
      3244 P9       58       ETHY     H21      HGA2     0.090000        1.0080           0
      3245 P9       58       ETHY     H23      HGA2     0.090000        1.0080           0
      3246 P9       59       ETHY     C1       CG321   -0.180000       12.0110           0
      3247 P9       59       ETHY     H11      HGA2     0.090000        1.0080           0
      3248 P9       59       ETHY     H13      HGA2     0.090000        1.0080           0
      3249 P9       59       ETHY     C2       CG321   -0.180000       12.0110           0
      3250 P9       59       ETHY     H21      HGA2     0.090000        1.0080           0
      3251 P9       59       ETHY     H23      HGA2     0.090000        1.0080           0
      3252 P9       60       ETHY     C1       CG321   -0.180000       12.0110           0
      3253 P9       60       ETHY     H11      HGA2     0.090000        1.0080           0
      3254 P9       60       ETHY     H13      HGA2     0.090000        1.0080           0
      3255 P9       60       ETHY     C2       CG331   -0.270000       12.0110           0
      3256 P9       60       ETHY     H22      HGA3     0.090000        1.0080           0
      3257 P9       60       ETHY     H21      HGA3     0.090000        1.0080           0
      3258 P9       60       ETHY     H23      HGA3     0.090000        1.0080           0
      3259 P10      1        ETHY     C1       CG331   -0.270000       12.0110           0
      3260 P10      1        ETHY     H11      HGA3     0.090000        1.0080           0
      3261 P10      1        ETHY     H12      HGA3     0.090000        1.0080           0
      3262 P10      1        ETHY     H13      HGA3     0.090000        1.0080           0
      3263 P10      1        ETHY     C2       CG321   -0.180000       12.0110           0
      3264 P10      1        ETHY     H21      HGA2     0.090000        1.0080           0
      3265 P10      1        ETHY     H23      HGA2     0.090000        1.0080           0
      3266 P10      2        ETHY     C1       CG321   -0.180000       12.0110           0
      3267 P10      2        ETHY     H11      HGA2     0.090000        1.0080           0
      3268 P10      2        ETHY     H13      HGA2     0.090000        1.0080           0
      3269 P10      2        ETHY     C2       CG321   -0.180000       12.0110           0
      3270 P10      2        ETHY     H21      HGA2     0.090000        1.0080           0
      3271 P10      2        ETHY     H23      HGA2     0.090000        1.0080           0
      3272 P10      3        ETHY     C1       CG321   -0.180000       12.0110           0
      3273 P10      3        ETHY     H11      HGA2     0.090000        1.0080           0
      3274 P10      3        ETHY     H13      HGA2     0.090000        1.0080           0
      3275 P10      3        ETHY     C2       CG321   -0.180000       12.0110           0
      3276 P10      3        ETHY     H21      HGA2     0.090000        1.0080           0
      3277 P10      3        ETHY     H23      HGA2     0.090000        1.0080           0
      3278 P10      4        ETHY     C1       CG321   -0.180000       12.0110           0
      3279 P10      4        ETHY     H11      HGA2     0.090000        1.0080           0
      3280 P10      4        ETHY     H13      HGA2     0.090000        1.0080           0
      3281 P10      4        ETHY     C2       CG321   -0.180000       12.0110           0
      3282 P10      4        ETHY     H21      HGA2     0.090000        1.0080           0
      3283 P10      4        ETHY     H23      HGA2     0.090000        1.0080           0
      3284 P10      5        ETHY     C1       CG321   -0.180000       12.0110           0
      3285 P10      5        ETHY     H11      HGA2     0.090000        1.0080           0
      3286 P10      5        ETHY     H13      HGA2     0.090000        1.0080           0
      3287 P10      5        ETHY     C2       CG321   -0.180000       12.0110           0
      3288 P10      5        ETHY     H21      HGA2     0.090000        1.0080           0
      3289 P10      5        ETHY     H23      HGA2     0.090000        1.0080           0
      3290 P10      6        ETHY     C1       CG321   -0.180000       12.0110           0
      3291 P10      6        ETHY     H11      HGA2     0.090000        1.0080           0
      3292 P10      6        ETHY     H13      HGA2     0.090000        1.0080           0
      3293 P10      6        ETHY     C2       CG321   -0.180000       12.0110           0
      3294 P10      6        ETHY     H21      HGA2     0.090000        1.0080           0
      3295 P10      6        ETHY     H23      HGA2     0.090000        1.0080           0
      3296 P10      7        ETHY     C1       CG321   -0.180000       12.0110           0
      3297 P10      7        ETHY     H11      HGA2     0.090000        1.0080           0
      3298 P10      7        ETHY     H13      HGA2     0.090000        1.0080           0
      3299 P10      7        ETHY     C2       CG321   -0.180000       12.0110           0
      3300 P10      7        ETHY     H21      HGA2     0.090000        1.0080           0
      3301 P10      7        ETHY     H23      HGA2     0.090000        1.0080           0
      3302 P10      8        ETHY     C1       CG321   -0.180000       12.0110           0
      3303 P10      8        ETHY     H11      HGA2     0.090000        1.0080           0
      3304 P10      8        ETHY     H13      HGA2     0.090000        1.0080           0
      3305 P10      8        ETHY     C2       CG321   -0.180000       12.0110           0
      3306 P10      8        ETHY     H21      HGA2     0.090000        1.0080           0
      3307 P10      8        ETHY     H23      HGA2     0.090000        1.0080           0
      3308 P10      9        ETHY     C1       CG321   -0.180000       12.0110           0
      3309 P10      9        ETHY     H11      HGA2     0.090000        1.0080           0
      3310 P10      9        ETHY     H13      HGA2     0.090000        1.0080           0
      3311 P10      9        ETHY     C2       CG321   -0.180000       12.0110           0
      3312 P10      9        ETHY     H21      HGA2     0.090000        1.0080           0
      3313 P10      9        ETHY     H23      HGA2     0.090000        1.0080           0
      3314 P10      10       ETHY     C1       CG321   -0.180000       12.0110           0
      3315 P10      10       ETHY     H11      HGA2     0.090000        1.0080           0
      3316 P10      10       ETHY     H13      HGA2     0.090000        1.0080           0
      3317 P10      10       ETHY     C2       CG321   -0.180000       12.0110           0
      3318 P10      10       ETHY     H21      HGA2     0.090000        1.0080           0
      3319 P10      10       ETHY     H23      HGA2     0.090000        1.0080           0
      3320 P10      11       ETHY     C1       CG321   -0.180000       12.0110           0
      3321 P10      11       ETHY     H11      HGA2     0.090000        1.0080           0
      3322 P10      11       ETHY     H13      HGA2     0.090000        1.0080           0
      3323 P10      11       ETHY     C2       CG321   -0.180000       12.0110           0
      3324 P10      11       ETHY     H21      HGA2     0.090000        1.0080           0
      3325 P10      11       ETHY     H23      HGA2     0.090000        1.0080           0
      3326 P10      12       ETHY     C1       CG321   -0.180000       12.0110           0
      3327 P10      12       ETHY     H11      HGA2     0.090000        1.0080           0
      3328 P10      12       ETHY     H13      HGA2     0.090000        1.0080           0
      3329 P10      12       ETHY     C2       CG321   -0.180000       12.0110           0
      3330 P10      12       ETHY     H21      HGA2     0.090000        1.0080           0
      3331 P10      12       ETHY     H23      HGA2     0.090000        1.0080           0
      3332 P10      13       ETHY     C1       CG321   -0.180000       12.0110           0
      3333 P10      13       ETHY     H11      HGA2     0.090000        1.0080           0
      3334 P10      13       ETHY     H13      HGA2     0.090000        1.0080           0
      3335 P10      13       ETHY     C2       CG321   -0.180000       12.0110           0
      3336 P10      13       ETHY     H21      HGA2     0.090000        1.0080           0
      3337 P10      13       ETHY     H23      HGA2     0.090000        1.0080           0
      3338 P10      14       ETHY     C1       CG321   -0.180000       12.0110           0
      3339 P10      14       ETHY     H11      HGA2     0.090000        1.0080           0
      3340 P10      14       ETHY     H13      HGA2     0.090000        1.0080           0
      3341 P10      14       ETHY     C2       CG321   -0.180000       12.0110           0
      3342 P10      14       ETHY     H21      HGA2     0.090000        1.0080           0
      3343 P10      14       ETHY     H23      HGA2     0.090000        1.0080           0
      3344 P10      15       ETHY     C1       CG321   -0.180000       12.0110           0
      3345 P10      15       ETHY     H11      HGA2     0.090000        1.0080           0
      3346 P10      15       ETHY     H13      HGA2     0.090000        1.0080           0
      3347 P10      15       ETHY     C2       CG321   -0.180000       12.0110           0
      3348 P10      15       ETHY     H21      HGA2     0.090000        1.0080           0
      3349 P10      15       ETHY     H23      HGA2     0.090000        1.0080           0
      3350 P10      16       ETHY     C1       CG321   -0.180000       12.0110           0
      3351 P10      16       ETHY     H11      HGA2     0.090000        1.0080           0
      3352 P10      16       ETHY     H13      HGA2     0.090000        1.0080           0
      3353 P10      16       ETHY     C2       CG321   -0.180000       12.0110           0
      3354 P10      16       ETHY     H21      HGA2     0.090000        1.0080           0
      3355 P10      16       ETHY     H23      HGA2     0.090000        1.0080           0
      3356 P10      17       ETHY     C1       CG321   -0.180000       12.0110           0
      3357 P10      17       ETHY     H11      HGA2     0.090000        1.0080           0
      3358 P10      17       ETHY     H13      HGA2     0.090000        1.0080           0
      3359 P10      17       ETHY     C2       CG321   -0.180000       12.0110           0
      3360 P10      17       ETHY     H21      HGA2     0.090000        1.0080           0
      3361 P10      17       ETHY     H23      HGA2     0.090000        1.0080           0
      3362 P10      18       ETHY     C1       CG321   -0.180000       12.0110           0
      3363 P10      18       ETHY     H11      HGA2     0.090000        1.0080           0
      3364 P10      18       ETHY     H13      HGA2     0.090000        1.0080           0
      3365 P10      18       ETHY     C2       CG321   -0.180000       12.0110           0
      3366 P10      18       ETHY     H21      HGA2     0.090000        1.0080           0
      3367 P10      18       ETHY     H23      HGA2     0.090000        1.0080           0
      3368 P10      19       ETHY     C1       CG321   -0.180000       12.0110           0
      3369 P10      19       ETHY     H11      HGA2     0.090000        1.0080           0
      3370 P10      19       ETHY     H13      HGA2     0.090000        1.0080           0
      3371 P10      19       ETHY     C2       CG321   -0.180000       12.0110           0
      3372 P10      19       ETHY     H21      HGA2     0.090000        1.0080           0
      3373 P10      19       ETHY     H23      HGA2     0.090000        1.0080           0
      3374 P10      20       ETHY     C1       CG321   -0.180000       12.0110           0
      3375 P10      20       ETHY     H11      HGA2     0.090000        1.0080           0
      3376 P10      20       ETHY     H13      HGA2     0.090000        1.0080           0
      3377 P10      20       ETHY     C2       CG321   -0.180000       12.0110           0
      3378 P10      20       ETHY     H21      HGA2     0.090000        1.0080           0
      3379 P10      20       ETHY     H23      HGA2     0.090000        1.0080           0
      3380 P10      21       ETHY     C1       CG321   -0.180000       12.0110           0
      3381 P10      21       ETHY     H11      HGA2     0.090000        1.0080           0
      3382 P10      21       ETHY     H13      HGA2     0.090000        1.0080           0
      3383 P10      21       ETHY     C2       CG321   -0.180000       12.0110           0
      3384 P10      21       ETHY     H21      HGA2     0.090000        1.0080           0
      3385 P10      21       ETHY     H23      HGA2     0.090000        1.0080           0
      3386 P10      22       ETHY     C1       CG321   -0.180000       12.0110           0
      3387 P10      22       ETHY     H11      HGA2     0.090000        1.0080           0
      3388 P10      22       ETHY     H13      HGA2     0.090000        1.0080           0
      3389 P10      22       ETHY     C2       CG321   -0.180000       12.0110           0
      3390 P10      22       ETHY     H21      HGA2     0.090000        1.0080           0
      3391 P10      22       ETHY     H23      HGA2     0.090000        1.0080           0
      3392 P10      23       ETHY     C1       CG321   -0.180000       12.0110           0
      3393 P10      23       ETHY     H11      HGA2     0.090000        1.0080           0
      3394 P10      23       ETHY     H13      HGA2     0.090000        1.0080           0
      3395 P10      23       ETHY     C2       CG321   -0.180000       12.0110           0
      3396 P10      23       ETHY     H21      HGA2     0.090000        1.0080           0
      3397 P10      23       ETHY     H23      HGA2     0.090000        1.0080           0
      3398 P10      24       ETHY     C1       CG321   -0.180000       12.0110           0
      3399 P10      24       ETHY     H11      HGA2     0.090000        1.0080           0
      3400 P10      24       ETHY     H13      HGA2     0.090000        1.0080           0
      3401 P10      24       ETHY     C2       CG321   -0.180000       12.0110           0
      3402 P10      24       ETHY     H21      HGA2     0.090000        1.0080           0
      3403 P10      24       ETHY     H23      HGA2     0.090000        1.0080           0
      3404 P10      25       ETHY     C1       CG321   -0.180000       12.0110           0
      3405 P10      25       ETHY     H11      HGA2     0.090000        1.0080           0
      3406 P10      25       ETHY     H13      HGA2     0.090000        1.0080           0
      3407 P10      25       ETHY     C2       CG321   -0.180000       12.0110           0
      3408 P10      25       ETHY     H21      HGA2     0.090000        1.0080           0
      3409 P10      25       ETHY     H23      HGA2     0.090000        1.0080           0
      3410 P10      26       ETHY     C1       CG321   -0.180000       12.0110           0
      3411 P10      26       ETHY     H11      HGA2     0.090000        1.0080           0
      3412 P10      26       ETHY     H13      HGA2     0.090000        1.0080           0
      3413 P10      26       ETHY     C2       CG321   -0.180000       12.0110           0
      3414 P10      26       ETHY     H21      HGA2     0.090000        1.0080           0
      3415 P10      26       ETHY     H23      HGA2     0.090000        1.0080           0
      3416 P10      27       ETHY     C1       CG321   -0.180000       12.0110           0
      3417 P10      27       ETHY     H11      HGA2     0.090000        1.0080           0
      3418 P10      27       ETHY     H13      HGA2     0.090000        1.0080           0
      3419 P10      27       ETHY     C2       CG321   -0.180000       12.0110           0
      3420 P10      27       ETHY     H21      HGA2     0.090000        1.0080           0
      3421 P10      27       ETHY     H23      HGA2     0.090000        1.0080           0
      3422 P10      28       ETHY     C1       CG321   -0.180000       12.0110           0
      3423 P10      28       ETHY     H11      HGA2     0.090000        1.0080           0
      3424 P10      28       ETHY     H13      HGA2     0.090000        1.0080           0
      3425 P10      28       ETHY     C2       CG321   -0.180000       12.0110           0
      3426 P10      28       ETHY     H21      HGA2     0.090000        1.0080           0
      3427 P10      28       ETHY     H23      HGA2     0.090000        1.0080           0
      3428 P10      29       ETHY     C1       CG321   -0.180000       12.0110           0
      3429 P10      29       ETHY     H11      HGA2     0.090000        1.0080           0
      3430 P10      29       ETHY     H13      HGA2     0.090000        1.0080           0
      3431 P10      29       ETHY     C2       CG321   -0.180000       12.0110           0
      3432 P10      29       ETHY     H21      HGA2     0.090000        1.0080           0
      3433 P10      29       ETHY     H23      HGA2     0.090000        1.0080           0
      3434 P10      30       ETHY     C1       CG321   -0.180000       12.0110           0
      3435 P10      30       ETHY     H11      HGA2     0.090000        1.0080           0
      3436 P10      30       ETHY     H13      HGA2     0.090000        1.0080           0
      3437 P10      30       ETHY     C2       CG321   -0.180000       12.0110           0
      3438 P10      30       ETHY     H21      HGA2     0.090000        1.0080           0
      3439 P10      30       ETHY     H23      HGA2     0.090000        1.0080           0
      3440 P10      31       ETHY     C1       CG321   -0.180000       12.0110           0
      3441 P10      31       ETHY     H11      HGA2     0.090000        1.0080           0
      3442 P10      31       ETHY     H13      HGA2     0.090000        1.0080           0
      3443 P10      31       ETHY     C2       CG321   -0.180000       12.0110           0
      3444 P10      31       ETHY     H21      HGA2     0.090000        1.0080           0
      3445 P10      31       ETHY     H23      HGA2     0.090000        1.0080           0
      3446 P10      32       ETHY     C1       CG321   -0.180000       12.0110           0
      3447 P10      32       ETHY     H11      HGA2     0.090000        1.0080           0
      3448 P10      32       ETHY     H13      HGA2     0.090000        1.0080           0
      3449 P10      32       ETHY     C2       CG321   -0.180000       12.0110           0
      3450 P10      32       ETHY     H21      HGA2     0.090000        1.0080           0
      3451 P10      32       ETHY     H23      HGA2     0.090000        1.0080           0
      3452 P10      33       ETHY     C1       CG321   -0.180000       12.0110           0
      3453 P10      33       ETHY     H11      HGA2     0.090000        1.0080           0
      3454 P10      33       ETHY     H13      HGA2     0.090000        1.0080           0
      3455 P10      33       ETHY     C2       CG321   -0.180000       12.0110           0
      3456 P10      33       ETHY     H21      HGA2     0.090000        1.0080           0
      3457 P10      33       ETHY     H23      HGA2     0.090000        1.0080           0
      3458 P10      34       ETHY     C1       CG321   -0.180000       12.0110           0
      3459 P10      34       ETHY     H11      HGA2     0.090000        1.0080           0
      3460 P10      34       ETHY     H13      HGA2     0.090000        1.0080           0
      3461 P10      34       ETHY     C2       CG321   -0.180000       12.0110           0
      3462 P10      34       ETHY     H21      HGA2     0.090000        1.0080           0
      3463 P10      34       ETHY     H23      HGA2     0.090000        1.0080           0
      3464 P10      35       ETHY     C1       CG321   -0.180000       12.0110           0
      3465 P10      35       ETHY     H11      HGA2     0.090000        1.0080           0
      3466 P10      35       ETHY     H13      HGA2     0.090000        1.0080           0
      3467 P10      35       ETHY     C2       CG321   -0.180000       12.0110           0
      3468 P10      35       ETHY     H21      HGA2     0.090000        1.0080           0
      3469 P10      35       ETHY     H23      HGA2     0.090000        1.0080           0
      3470 P10      36       ETHY     C1       CG321   -0.180000       12.0110           0
      3471 P10      36       ETHY     H11      HGA2     0.090000        1.0080           0
      3472 P10      36       ETHY     H13      HGA2     0.090000        1.0080           0
      3473 P10      36       ETHY     C2       CG321   -0.180000       12.0110           0
      3474 P10      36       ETHY     H21      HGA2     0.090000        1.0080           0
      3475 P10      36       ETHY     H23      HGA2     0.090000        1.0080           0
      3476 P10      37       ETHY     C1       CG321   -0.180000       12.0110           0
      3477 P10      37       ETHY     H11      HGA2     0.090000        1.0080           0
      3478 P10      37       ETHY     H13      HGA2     0.090000        1.0080           0
      3479 P10      37       ETHY     C2       CG321   -0.180000       12.0110           0
      3480 P10      37       ETHY     H21      HGA2     0.090000        1.0080           0
      3481 P10      37       ETHY     H23      HGA2     0.090000        1.0080           0
      3482 P10      38       ETHY     C1       CG321   -0.180000       12.0110           0
      3483 P10      38       ETHY     H11      HGA2     0.090000        1.0080           0
      3484 P10      38       ETHY     H13      HGA2     0.090000        1.0080           0
      3485 P10      38       ETHY     C2       CG321   -0.180000       12.0110           0
      3486 P10      38       ETHY     H21      HGA2     0.090000        1.0080           0
      3487 P10      38       ETHY     H23      HGA2     0.090000        1.0080           0
      3488 P10      39       ETHY     C1       CG321   -0.180000       12.0110           0
      3489 P10      39       ETHY     H11      HGA2     0.090000        1.0080           0
      3490 P10      39       ETHY     H13      HGA2     0.090000        1.0080           0
      3491 P10      39       ETHY     C2       CG321   -0.180000       12.0110           0
      3492 P10      39       ETHY     H21      HGA2     0.090000        1.0080           0
      3493 P10      39       ETHY     H23      HGA2     0.090000        1.0080           0
      3494 P10      40       ETHY     C1       CG321   -0.180000       12.0110           0
      3495 P10      40       ETHY     H11      HGA2     0.090000        1.0080           0
      3496 P10      40       ETHY     H13      HGA2     0.090000        1.0080           0
      3497 P10      40       ETHY     C2       CG321   -0.180000       12.0110           0
      3498 P10      40       ETHY     H21      HGA2     0.090000        1.0080           0
      3499 P10      40       ETHY     H23      HGA2     0.090000        1.0080           0
      3500 P10      41       ETHY     C1       CG321   -0.180000       12.0110           0
      3501 P10      41       ETHY     H11      HGA2     0.090000        1.0080           0
      3502 P10      41       ETHY     H13      HGA2     0.090000        1.0080           0
      3503 P10      41       ETHY     C2       CG321   -0.180000       12.0110           0
      3504 P10      41       ETHY     H21      HGA2     0.090000        1.0080           0
      3505 P10      41       ETHY     H23      HGA2     0.090000        1.0080           0
      3506 P10      42       ETHY     C1       CG321   -0.180000       12.0110           0
      3507 P10      42       ETHY     H11      HGA2     0.090000        1.0080           0
      3508 P10      42       ETHY     H13      HGA2     0.090000        1.0080           0
      3509 P10      42       ETHY     C2       CG321   -0.180000       12.0110           0
      3510 P10      42       ETHY     H21      HGA2     0.090000        1.0080           0
      3511 P10      42       ETHY     H23      HGA2     0.090000        1.0080           0
      3512 P10      43       ETHY     C1       CG321   -0.180000       12.0110           0
      3513 P10      43       ETHY     H11      HGA2     0.090000        1.0080           0
      3514 P10      43       ETHY     H13      HGA2     0.090000        1.0080           0
      3515 P10      43       ETHY     C2       CG321   -0.180000       12.0110           0
      3516 P10      43       ETHY     H21      HGA2     0.090000        1.0080           0
      3517 P10      43       ETHY     H23      HGA2     0.090000        1.0080           0
      3518 P10      44       ETHY     C1       CG321   -0.180000       12.0110           0
      3519 P10      44       ETHY     H11      HGA2     0.090000        1.0080           0
      3520 P10      44       ETHY     H13      HGA2     0.090000        1.0080           0
      3521 P10      44       ETHY     C2       CG321   -0.180000       12.0110           0
      3522 P10      44       ETHY     H21      HGA2     0.090000        1.0080           0
      3523 P10      44       ETHY     H23      HGA2     0.090000        1.0080           0
      3524 P10      45       ETHY     C1       CG321   -0.180000       12.0110           0
      3525 P10      45       ETHY     H11      HGA2     0.090000        1.0080           0
      3526 P10      45       ETHY     H13      HGA2     0.090000        1.0080           0
      3527 P10      45       ETHY     C2       CG321   -0.180000       12.0110           0
      3528 P10      45       ETHY     H21      HGA2     0.090000        1.0080           0
      3529 P10      45       ETHY     H23      HGA2     0.090000        1.0080           0
      3530 P10      46       ETHY     C1       CG321   -0.180000       12.0110           0
      3531 P10      46       ETHY     H11      HGA2     0.090000        1.0080           0
      3532 P10      46       ETHY     H13      HGA2     0.090000        1.0080           0
      3533 P10      46       ETHY     C2       CG321   -0.180000       12.0110           0
      3534 P10      46       ETHY     H21      HGA2     0.090000        1.0080           0
      3535 P10      46       ETHY     H23      HGA2     0.090000        1.0080           0
      3536 P10      47       ETHY     C1       CG321   -0.180000       12.0110           0
      3537 P10      47       ETHY     H11      HGA2     0.090000        1.0080           0
      3538 P10      47       ETHY     H13      HGA2     0.090000        1.0080           0
      3539 P10      47       ETHY     C2       CG321   -0.180000       12.0110           0
      3540 P10      47       ETHY     H21      HGA2     0.090000        1.0080           0
      3541 P10      47       ETHY     H23      HGA2     0.090000        1.0080           0
      3542 P10      48       ETHY     C1       CG321   -0.180000       12.0110           0
      3543 P10      48       ETHY     H11      HGA2     0.090000        1.0080           0
      3544 P10      48       ETHY     H13      HGA2     0.090000        1.0080           0
      3545 P10      48       ETHY     C2       CG321   -0.180000       12.0110           0
      3546 P10      48       ETHY     H21      HGA2     0.090000        1.0080           0
      3547 P10      48       ETHY     H23      HGA2     0.090000        1.0080           0
      3548 P10      49       ETHY     C1       CG321   -0.180000       12.0110           0
      3549 P10      49       ETHY     H11      HGA2     0.090000        1.0080           0
      3550 P10      49       ETHY     H13      HGA2     0.090000        1.0080           0
      3551 P10      49       ETHY     C2       CG321   -0.180000       12.0110           0
      3552 P10      49       ETHY     H21      HGA2     0.090000        1.0080           0
      3553 P10      49       ETHY     H23      HGA2     0.090000        1.0080           0
      3554 P10      50       ETHY     C1       CG321   -0.180000       12.0110           0
      3555 P10      50       ETHY     H11      HGA2     0.090000        1.0080           0
      3556 P10      50       ETHY     H13      HGA2     0.090000        1.0080           0
      3557 P10      50       ETHY     C2       CG321   -0.180000       12.0110           0
      3558 P10      50       ETHY     H21      HGA2     0.090000        1.0080           0
      3559 P10      50       ETHY     H23      HGA2     0.090000        1.0080           0
      3560 P10      51       ETHY     C1       CG321   -0.180000       12.0110           0
      3561 P10      51       ETHY     H11      HGA2     0.090000        1.0080           0
      3562 P10      51       ETHY     H13      HGA2     0.090000        1.0080           0
      3563 P10      51       ETHY     C2       CG321   -0.180000       12.0110           0
      3564 P10      51       ETHY     H21      HGA2     0.090000        1.0080           0
      3565 P10      51       ETHY     H23      HGA2     0.090000        1.0080           0
      3566 P10      52       ETHY     C1       CG321   -0.180000       12.0110           0
      3567 P10      52       ETHY     H11      HGA2     0.090000        1.0080           0
      3568 P10      52       ETHY     H13      HGA2     0.090000        1.0080           0
      3569 P10      52       ETHY     C2       CG321   -0.180000       12.0110           0
      3570 P10      52       ETHY     H21      HGA2     0.090000        1.0080           0
      3571 P10      52       ETHY     H23      HGA2     0.090000        1.0080           0
      3572 P10      53       ETHY     C1       CG321   -0.180000       12.0110           0
      3573 P10      53       ETHY     H11      HGA2     0.090000        1.0080           0
      3574 P10      53       ETHY     H13      HGA2     0.090000        1.0080           0
      3575 P10      53       ETHY     C2       CG321   -0.180000       12.0110           0
      3576 P10      53       ETHY     H21      HGA2     0.090000        1.0080           0
      3577 P10      53       ETHY     H23      HGA2     0.090000        1.0080           0
      3578 P10      54       ETHY     C1       CG321   -0.180000       12.0110           0
      3579 P10      54       ETHY     H11      HGA2     0.090000        1.0080           0
      3580 P10      54       ETHY     H13      HGA2     0.090000        1.0080           0
      3581 P10      54       ETHY     C2       CG321   -0.180000       12.0110           0
      3582 P10      54       ETHY     H21      HGA2     0.090000        1.0080           0
      3583 P10      54       ETHY     H23      HGA2     0.090000        1.0080           0
      3584 P10      55       ETHY     C1       CG321   -0.180000       12.0110           0
      3585 P10      55       ETHY     H11      HGA2     0.090000        1.0080           0
      3586 P10      55       ETHY     H13      HGA2     0.090000        1.0080           0
      3587 P10      55       ETHY     C2       CG321   -0.180000       12.0110           0
      3588 P10      55       ETHY     H21      HGA2     0.090000        1.0080           0
      3589 P10      55       ETHY     H23      HGA2     0.090000        1.0080           0
      3590 P10      56       ETHY     C1       CG321   -0.180000       12.0110           0
      3591 P10      56       ETHY     H11      HGA2     0.090000        1.0080           0
      3592 P10      56       ETHY     H13      HGA2     0.090000        1.0080           0
      3593 P10      56       ETHY     C2       CG321   -0.180000       12.0110           0
      3594 P10      56       ETHY     H21      HGA2     0.090000        1.0080           0
      3595 P10      56       ETHY     H23      HGA2     0.090000        1.0080           0
      3596 P10      57       ETHY     C1       CG321   -0.180000       12.0110           0
      3597 P10      57       ETHY     H11      HGA2     0.090000        1.0080           0
      3598 P10      57       ETHY     H13      HGA2     0.090000        1.0080           0
      3599 P10      57       ETHY     C2       CG321   -0.180000       12.0110           0
      3600 P10      57       ETHY     H21      HGA2     0.090000        1.0080           0
      3601 P10      57       ETHY     H23      HGA2     0.090000        1.0080           0
      3602 P10      58       ETHY     C1       CG321   -0.180000       12.0110           0
      3603 P10      58       ETHY     H11      HGA2     0.090000        1.0080           0
      3604 P10      58       ETHY     H13      HGA2     0.090000        1.0080           0
      3605 P10      58       ETHY     C2       CG321   -0.180000       12.0110           0
      3606 P10      58       ETHY     H21      HGA2     0.090000        1.0080           0
      3607 P10      58       ETHY     H23      HGA2     0.090000        1.0080           0
      3608 P10      59       ETHY     C1       CG321   -0.180000       12.0110           0
      3609 P10      59       ETHY     H11      HGA2     0.090000        1.0080           0
      3610 P10      59       ETHY     H13      HGA2     0.090000        1.0080           0
      3611 P10      59       ETHY     C2       CG321   -0.180000       12.0110           0
      3612 P10      59       ETHY     H21      HGA2     0.090000        1.0080           0
      3613 P10      59       ETHY     H23      HGA2     0.090000        1.0080           0
      3614 P10      60       ETHY     C1       CG321   -0.180000       12.0110           0
      3615 P10      60       ETHY     H11      HGA2     0.090000        1.0080           0
      3616 P10      60       ETHY     H13      HGA2     0.090000        1.0080           0
      3617 P10      60       ETHY     C2       CG331   -0.270000       12.0110           0
      3618 P10      60       ETHY     H22      HGA3     0.090000        1.0080           0
      3619 P10      60       ETHY     H21      HGA3     0.090000        1.0080           0
      3620 P10      60       ETHY     H23      HGA3     0.090000        1.0080           0
      3621 P11      1        ETHY     C1       CG331   -0.270000       12.0110           0
      3622 P11      1        ETHY     H11      HGA3     0.090000        1.0080           0
      3623 P11      1        ETHY     H12      HGA3     0.090000        1.0080           0
      3624 P11      1        ETHY     H13      HGA3     0.090000        1.0080           0
      3625 P11      1        ETHY     C2       CG321   -0.180000       12.0110           0
      3626 P11      1        ETHY     H21      HGA2     0.090000        1.0080           0
      3627 P11      1        ETHY     H23      HGA2     0.090000        1.0080           0
      3628 P11      2        ETHY     C1       CG321   -0.180000       12.0110           0
      3629 P11      2        ETHY     H11      HGA2     0.090000        1.0080           0
      3630 P11      2        ETHY     H13      HGA2     0.090000        1.0080           0
      3631 P11      2        ETHY     C2       CG321   -0.180000       12.0110           0
      3632 P11      2        ETHY     H21      HGA2     0.090000        1.0080           0
      3633 P11      2        ETHY     H23      HGA2     0.090000        1.0080           0
      3634 P11      3        ETHY     C1       CG321   -0.180000       12.0110           0
      3635 P11      3        ETHY     H11      HGA2     0.090000        1.0080           0
      3636 P11      3        ETHY     H13      HGA2     0.090000        1.0080           0
      3637 P11      3        ETHY     C2       CG321   -0.180000       12.0110           0
      3638 P11      3        ETHY     H21      HGA2     0.090000        1.0080           0
      3639 P11      3        ETHY     H23      HGA2     0.090000        1.0080           0
      3640 P11      4        ETHY     C1       CG321   -0.180000       12.0110           0
      3641 P11      4        ETHY     H11      HGA2     0.090000        1.0080           0
      3642 P11      4        ETHY     H13      HGA2     0.090000        1.0080           0
      3643 P11      4        ETHY     C2       CG321   -0.180000       12.0110           0
      3644 P11      4        ETHY     H21      HGA2     0.090000        1.0080           0
      3645 P11      4        ETHY     H23      HGA2     0.090000        1.0080           0
      3646 P11      5        ETHY     C1       CG321   -0.180000       12.0110           0
      3647 P11      5        ETHY     H11      HGA2     0.090000        1.0080           0
      3648 P11      5        ETHY     H13      HGA2     0.090000        1.0080           0
      3649 P11      5        ETHY     C2       CG321   -0.180000       12.0110           0
      3650 P11      5        ETHY     H21      HGA2     0.090000        1.0080           0
      3651 P11      5        ETHY     H23      HGA2     0.090000        1.0080           0
      3652 P11      6        ETHY     C1       CG321   -0.180000       12.0110           0
      3653 P11      6        ETHY     H11      HGA2     0.090000        1.0080           0
      3654 P11      6        ETHY     H13      HGA2     0.090000        1.0080           0
      3655 P11      6        ETHY     C2       CG321   -0.180000       12.0110           0
      3656 P11      6        ETHY     H21      HGA2     0.090000        1.0080           0
      3657 P11      6        ETHY     H23      HGA2     0.090000        1.0080           0
      3658 P11      7        ETHY     C1       CG321   -0.180000       12.0110           0
      3659 P11      7        ETHY     H11      HGA2     0.090000        1.0080           0
      3660 P11      7        ETHY     H13      HGA2     0.090000        1.0080           0
      3661 P11      7        ETHY     C2       CG321   -0.180000       12.0110           0
      3662 P11      7        ETHY     H21      HGA2     0.090000        1.0080           0
      3663 P11      7        ETHY     H23      HGA2     0.090000        1.0080           0
      3664 P11      8        ETHY     C1       CG321   -0.180000       12.0110           0
      3665 P11      8        ETHY     H11      HGA2     0.090000        1.0080           0
      3666 P11      8        ETHY     H13      HGA2     0.090000        1.0080           0
      3667 P11      8        ETHY     C2       CG321   -0.180000       12.0110           0
      3668 P11      8        ETHY     H21      HGA2     0.090000        1.0080           0
      3669 P11      8        ETHY     H23      HGA2     0.090000        1.0080           0
      3670 P11      9        ETHY     C1       CG321   -0.180000       12.0110           0
      3671 P11      9        ETHY     H11      HGA2     0.090000        1.0080           0
      3672 P11      9        ETHY     H13      HGA2     0.090000        1.0080           0
      3673 P11      9        ETHY     C2       CG321   -0.180000       12.0110           0
      3674 P11      9        ETHY     H21      HGA2     0.090000        1.0080           0
      3675 P11      9        ETHY     H23      HGA2     0.090000        1.0080           0
      3676 P11      10       ETHY     C1       CG321   -0.180000       12.0110           0
      3677 P11      10       ETHY     H11      HGA2     0.090000        1.0080           0
      3678 P11      10       ETHY     H13      HGA2     0.090000        1.0080           0
      3679 P11      10       ETHY     C2       CG321   -0.180000       12.0110           0
      3680 P11      10       ETHY     H21      HGA2     0.090000        1.0080           0
      3681 P11      10       ETHY     H23      HGA2     0.090000        1.0080           0
      3682 P11      11       ETHY     C1       CG321   -0.180000       12.0110           0
      3683 P11      11       ETHY     H11      HGA2     0.090000        1.0080           0
      3684 P11      11       ETHY     H13      HGA2     0.090000        1.0080           0
      3685 P11      11       ETHY     C2       CG321   -0.180000       12.0110           0
      3686 P11      11       ETHY     H21      HGA2     0.090000        1.0080           0
      3687 P11      11       ETHY     H23      HGA2     0.090000        1.0080           0
      3688 P11      12       ETHY     C1       CG321   -0.180000       12.0110           0
      3689 P11      12       ETHY     H11      HGA2     0.090000        1.0080           0
      3690 P11      12       ETHY     H13      HGA2     0.090000        1.0080           0
      3691 P11      12       ETHY     C2       CG321   -0.180000       12.0110           0
      3692 P11      12       ETHY     H21      HGA2     0.090000        1.0080           0
      3693 P11      12       ETHY     H23      HGA2     0.090000        1.0080           0
      3694 P11      13       ETHY     C1       CG321   -0.180000       12.0110           0
      3695 P11      13       ETHY     H11      HGA2     0.090000        1.0080           0
      3696 P11      13       ETHY     H13      HGA2     0.090000        1.0080           0
      3697 P11      13       ETHY     C2       CG321   -0.180000       12.0110           0
      3698 P11      13       ETHY     H21      HGA2     0.090000        1.0080           0
      3699 P11      13       ETHY     H23      HGA2     0.090000        1.0080           0
      3700 P11      14       ETHY     C1       CG321   -0.180000       12.0110           0
      3701 P11      14       ETHY     H11      HGA2     0.090000        1.0080           0
      3702 P11      14       ETHY     H13      HGA2     0.090000        1.0080           0
      3703 P11      14       ETHY     C2       CG321   -0.180000       12.0110           0
      3704 P11      14       ETHY     H21      HGA2     0.090000        1.0080           0
      3705 P11      14       ETHY     H23      HGA2     0.090000        1.0080           0
      3706 P11      15       ETHY     C1       CG321   -0.180000       12.0110           0
      3707 P11      15       ETHY     H11      HGA2     0.090000        1.0080           0
      3708 P11      15       ETHY     H13      HGA2     0.090000        1.0080           0
      3709 P11      15       ETHY     C2       CG321   -0.180000       12.0110           0
      3710 P11      15       ETHY     H21      HGA2     0.090000        1.0080           0
      3711 P11      15       ETHY     H23      HGA2     0.090000        1.0080           0
      3712 P11      16       ETHY     C1       CG321   -0.180000       12.0110           0
      3713 P11      16       ETHY     H11      HGA2     0.090000        1.0080           0
      3714 P11      16       ETHY     H13      HGA2     0.090000        1.0080           0
      3715 P11      16       ETHY     C2       CG321   -0.180000       12.0110           0
      3716 P11      16       ETHY     H21      HGA2     0.090000        1.0080           0
      3717 P11      16       ETHY     H23      HGA2     0.090000        1.0080           0
      3718 P11      17       ETHY     C1       CG321   -0.180000       12.0110           0
      3719 P11      17       ETHY     H11      HGA2     0.090000        1.0080           0
      3720 P11      17       ETHY     H13      HGA2     0.090000        1.0080           0
      3721 P11      17       ETHY     C2       CG321   -0.180000       12.0110           0
      3722 P11      17       ETHY     H21      HGA2     0.090000        1.0080           0
      3723 P11      17       ETHY     H23      HGA2     0.090000        1.0080           0
      3724 P11      18       ETHY     C1       CG321   -0.180000       12.0110           0
      3725 P11      18       ETHY     H11      HGA2     0.090000        1.0080           0
      3726 P11      18       ETHY     H13      HGA2     0.090000        1.0080           0
      3727 P11      18       ETHY     C2       CG321   -0.180000       12.0110           0
      3728 P11      18       ETHY     H21      HGA2     0.090000        1.0080           0
      3729 P11      18       ETHY     H23      HGA2     0.090000        1.0080           0
      3730 P11      19       ETHY     C1       CG321   -0.180000       12.0110           0
      3731 P11      19       ETHY     H11      HGA2     0.090000        1.0080           0
      3732 P11      19       ETHY     H13      HGA2     0.090000        1.0080           0
      3733 P11      19       ETHY     C2       CG321   -0.180000       12.0110           0
      3734 P11      19       ETHY     H21      HGA2     0.090000        1.0080           0
      3735 P11      19       ETHY     H23      HGA2     0.090000        1.0080           0
      3736 P11      20       ETHY     C1       CG321   -0.180000       12.0110           0
      3737 P11      20       ETHY     H11      HGA2     0.090000        1.0080           0
      3738 P11      20       ETHY     H13      HGA2     0.090000        1.0080           0
      3739 P11      20       ETHY     C2       CG321   -0.180000       12.0110           0
      3740 P11      20       ETHY     H21      HGA2     0.090000        1.0080           0
      3741 P11      20       ETHY     H23      HGA2     0.090000        1.0080           0
      3742 P11      21       ETHY     C1       CG321   -0.180000       12.0110           0
      3743 P11      21       ETHY     H11      HGA2     0.090000        1.0080           0
      3744 P11      21       ETHY     H13      HGA2     0.090000        1.0080           0
      3745 P11      21       ETHY     C2       CG321   -0.180000       12.0110           0
      3746 P11      21       ETHY     H21      HGA2     0.090000        1.0080           0
      3747 P11      21       ETHY     H23      HGA2     0.090000        1.0080           0
      3748 P11      22       ETHY     C1       CG321   -0.180000       12.0110           0
      3749 P11      22       ETHY     H11      HGA2     0.090000        1.0080           0
      3750 P11      22       ETHY     H13      HGA2     0.090000        1.0080           0
      3751 P11      22       ETHY     C2       CG321   -0.180000       12.0110           0
      3752 P11      22       ETHY     H21      HGA2     0.090000        1.0080           0
      3753 P11      22       ETHY     H23      HGA2     0.090000        1.0080           0
      3754 P11      23       ETHY     C1       CG321   -0.180000       12.0110           0
      3755 P11      23       ETHY     H11      HGA2     0.090000        1.0080           0
      3756 P11      23       ETHY     H13      HGA2     0.090000        1.0080           0
      3757 P11      23       ETHY     C2       CG321   -0.180000       12.0110           0
      3758 P11      23       ETHY     H21      HGA2     0.090000        1.0080           0
      3759 P11      23       ETHY     H23      HGA2     0.090000        1.0080           0
      3760 P11      24       ETHY     C1       CG321   -0.180000       12.0110           0
      3761 P11      24       ETHY     H11      HGA2     0.090000        1.0080           0
      3762 P11      24       ETHY     H13      HGA2     0.090000        1.0080           0
      3763 P11      24       ETHY     C2       CG321   -0.180000       12.0110           0
      3764 P11      24       ETHY     H21      HGA2     0.090000        1.0080           0
      3765 P11      24       ETHY     H23      HGA2     0.090000        1.0080           0
      3766 P11      25       ETHY     C1       CG321   -0.180000       12.0110           0
      3767 P11      25       ETHY     H11      HGA2     0.090000        1.0080           0
      3768 P11      25       ETHY     H13      HGA2     0.090000        1.0080           0
      3769 P11      25       ETHY     C2       CG321   -0.180000       12.0110           0
      3770 P11      25       ETHY     H21      HGA2     0.090000        1.0080           0
      3771 P11      25       ETHY     H23      HGA2     0.090000        1.0080           0
      3772 P11      26       ETHY     C1       CG321   -0.180000       12.0110           0
      3773 P11      26       ETHY     H11      HGA2     0.090000        1.0080           0
      3774 P11      26       ETHY     H13      HGA2     0.090000        1.0080           0
      3775 P11      26       ETHY     C2       CG321   -0.180000       12.0110           0
      3776 P11      26       ETHY     H21      HGA2     0.090000        1.0080           0
      3777 P11      26       ETHY     H23      HGA2     0.090000        1.0080           0
      3778 P11      27       ETHY     C1       CG321   -0.180000       12.0110           0
      3779 P11      27       ETHY     H11      HGA2     0.090000        1.0080           0
      3780 P11      27       ETHY     H13      HGA2     0.090000        1.0080           0
      3781 P11      27       ETHY     C2       CG321   -0.180000       12.0110           0
      3782 P11      27       ETHY     H21      HGA2     0.090000        1.0080           0
      3783 P11      27       ETHY     H23      HGA2     0.090000        1.0080           0
      3784 P11      28       ETHY     C1       CG321   -0.180000       12.0110           0
      3785 P11      28       ETHY     H11      HGA2     0.090000        1.0080           0
      3786 P11      28       ETHY     H13      HGA2     0.090000        1.0080           0
      3787 P11      28       ETHY     C2       CG321   -0.180000       12.0110           0
      3788 P11      28       ETHY     H21      HGA2     0.090000        1.0080           0
      3789 P11      28       ETHY     H23      HGA2     0.090000        1.0080           0
      3790 P11      29       ETHY     C1       CG321   -0.180000       12.0110           0
      3791 P11      29       ETHY     H11      HGA2     0.090000        1.0080           0
      3792 P11      29       ETHY     H13      HGA2     0.090000        1.0080           0
      3793 P11      29       ETHY     C2       CG321   -0.180000       12.0110           0
      3794 P11      29       ETHY     H21      HGA2     0.090000        1.0080           0
      3795 P11      29       ETHY     H23      HGA2     0.090000        1.0080           0
      3796 P11      30       ETHY     C1       CG321   -0.180000       12.0110           0
      3797 P11      30       ETHY     H11      HGA2     0.090000        1.0080           0
      3798 P11      30       ETHY     H13      HGA2     0.090000        1.0080           0
      3799 P11      30       ETHY     C2       CG321   -0.180000       12.0110           0
      3800 P11      30       ETHY     H21      HGA2     0.090000        1.0080           0
      3801 P11      30       ETHY     H23      HGA2     0.090000        1.0080           0
      3802 P11      31       ETHY     C1       CG321   -0.180000       12.0110           0
      3803 P11      31       ETHY     H11      HGA2     0.090000        1.0080           0
      3804 P11      31       ETHY     H13      HGA2     0.090000        1.0080           0
      3805 P11      31       ETHY     C2       CG321   -0.180000       12.0110           0
      3806 P11      31       ETHY     H21      HGA2     0.090000        1.0080           0
      3807 P11      31       ETHY     H23      HGA2     0.090000        1.0080           0
      3808 P11      32       ETHY     C1       CG321   -0.180000       12.0110           0
      3809 P11      32       ETHY     H11      HGA2     0.090000        1.0080           0
      3810 P11      32       ETHY     H13      HGA2     0.090000        1.0080           0
      3811 P11      32       ETHY     C2       CG321   -0.180000       12.0110           0
      3812 P11      32       ETHY     H21      HGA2     0.090000        1.0080           0
      3813 P11      32       ETHY     H23      HGA2     0.090000        1.0080           0
      3814 P11      33       ETHY     C1       CG321   -0.180000       12.0110           0
      3815 P11      33       ETHY     H11      HGA2     0.090000        1.0080           0
      3816 P11      33       ETHY     H13      HGA2     0.090000        1.0080           0
      3817 P11      33       ETHY     C2       CG321   -0.180000       12.0110           0
      3818 P11      33       ETHY     H21      HGA2     0.090000        1.0080           0
      3819 P11      33       ETHY     H23      HGA2     0.090000        1.0080           0
      3820 P11      34       ETHY     C1       CG321   -0.180000       12.0110           0
      3821 P11      34       ETHY     H11      HGA2     0.090000        1.0080           0
      3822 P11      34       ETHY     H13      HGA2     0.090000        1.0080           0
      3823 P11      34       ETHY     C2       CG321   -0.180000       12.0110           0
      3824 P11      34       ETHY     H21      HGA2     0.090000        1.0080           0
      3825 P11      34       ETHY     H23      HGA2     0.090000        1.0080           0
      3826 P11      35       ETHY     C1       CG321   -0.180000       12.0110           0
      3827 P11      35       ETHY     H11      HGA2     0.090000        1.0080           0
      3828 P11      35       ETHY     H13      HGA2     0.090000        1.0080           0
      3829 P11      35       ETHY     C2       CG321   -0.180000       12.0110           0
      3830 P11      35       ETHY     H21      HGA2     0.090000        1.0080           0
      3831 P11      35       ETHY     H23      HGA2     0.090000        1.0080           0
      3832 P11      36       ETHY     C1       CG321   -0.180000       12.0110           0
      3833 P11      36       ETHY     H11      HGA2     0.090000        1.0080           0
      3834 P11      36       ETHY     H13      HGA2     0.090000        1.0080           0
      3835 P11      36       ETHY     C2       CG321   -0.180000       12.0110           0
      3836 P11      36       ETHY     H21      HGA2     0.090000        1.0080           0
      3837 P11      36       ETHY     H23      HGA2     0.090000        1.0080           0
      3838 P11      37       ETHY     C1       CG321   -0.180000       12.0110           0
      3839 P11      37       ETHY     H11      HGA2     0.090000        1.0080           0
      3840 P11      37       ETHY     H13      HGA2     0.090000        1.0080           0
      3841 P11      37       ETHY     C2       CG321   -0.180000       12.0110           0
      3842 P11      37       ETHY     H21      HGA2     0.090000        1.0080           0
      3843 P11      37       ETHY     H23      HGA2     0.090000        1.0080           0
      3844 P11      38       ETHY     C1       CG321   -0.180000       12.0110           0
      3845 P11      38       ETHY     H11      HGA2     0.090000        1.0080           0
      3846 P11      38       ETHY     H13      HGA2     0.090000        1.0080           0
      3847 P11      38       ETHY     C2       CG321   -0.180000       12.0110           0
      3848 P11      38       ETHY     H21      HGA2     0.090000        1.0080           0
      3849 P11      38       ETHY     H23      HGA2     0.090000        1.0080           0
      3850 P11      39       ETHY     C1       CG321   -0.180000       12.0110           0
      3851 P11      39       ETHY     H11      HGA2     0.090000        1.0080           0
      3852 P11      39       ETHY     H13      HGA2     0.090000        1.0080           0
      3853 P11      39       ETHY     C2       CG321   -0.180000       12.0110           0
      3854 P11      39       ETHY     H21      HGA2     0.090000        1.0080           0
      3855 P11      39       ETHY     H23      HGA2     0.090000        1.0080           0
      3856 P11      40       ETHY     C1       CG321   -0.180000       12.0110           0
      3857 P11      40       ETHY     H11      HGA2     0.090000        1.0080           0
      3858 P11      40       ETHY     H13      HGA2     0.090000        1.0080           0
      3859 P11      40       ETHY     C2       CG321   -0.180000       12.0110           0
      3860 P11      40       ETHY     H21      HGA2     0.090000        1.0080           0
      3861 P11      40       ETHY     H23      HGA2     0.090000        1.0080           0
      3862 P11      41       ETHY     C1       CG321   -0.180000       12.0110           0
      3863 P11      41       ETHY     H11      HGA2     0.090000        1.0080           0
      3864 P11      41       ETHY     H13      HGA2     0.090000        1.0080           0
      3865 P11      41       ETHY     C2       CG321   -0.180000       12.0110           0
      3866 P11      41       ETHY     H21      HGA2     0.090000        1.0080           0
      3867 P11      41       ETHY     H23      HGA2     0.090000        1.0080           0
      3868 P11      42       ETHY     C1       CG321   -0.180000       12.0110           0
      3869 P11      42       ETHY     H11      HGA2     0.090000        1.0080           0
      3870 P11      42       ETHY     H13      HGA2     0.090000        1.0080           0
      3871 P11      42       ETHY     C2       CG321   -0.180000       12.0110           0
      3872 P11      42       ETHY     H21      HGA2     0.090000        1.0080           0
      3873 P11      42       ETHY     H23      HGA2     0.090000        1.0080           0
      3874 P11      43       ETHY     C1       CG321   -0.180000       12.0110           0
      3875 P11      43       ETHY     H11      HGA2     0.090000        1.0080           0
      3876 P11      43       ETHY     H13      HGA2     0.090000        1.0080           0
      3877 P11      43       ETHY     C2       CG321   -0.180000       12.0110           0
      3878 P11      43       ETHY     H21      HGA2     0.090000        1.0080           0
      3879 P11      43       ETHY     H23      HGA2     0.090000        1.0080           0
      3880 P11      44       ETHY     C1       CG321   -0.180000       12.0110           0
      3881 P11      44       ETHY     H11      HGA2     0.090000        1.0080           0
      3882 P11      44       ETHY     H13      HGA2     0.090000        1.0080           0
      3883 P11      44       ETHY     C2       CG321   -0.180000       12.0110           0
      3884 P11      44       ETHY     H21      HGA2     0.090000        1.0080           0
      3885 P11      44       ETHY     H23      HGA2     0.090000        1.0080           0
      3886 P11      45       ETHY     C1       CG321   -0.180000       12.0110           0
      3887 P11      45       ETHY     H11      HGA2     0.090000        1.0080           0
      3888 P11      45       ETHY     H13      HGA2     0.090000        1.0080           0
      3889 P11      45       ETHY     C2       CG321   -0.180000       12.0110           0
      3890 P11      45       ETHY     H21      HGA2     0.090000        1.0080           0
      3891 P11      45       ETHY     H23      HGA2     0.090000        1.0080           0
      3892 P11      46       ETHY     C1       CG321   -0.180000       12.0110           0
      3893 P11      46       ETHY     H11      HGA2     0.090000        1.0080           0
      3894 P11      46       ETHY     H13      HGA2     0.090000        1.0080           0
      3895 P11      46       ETHY     C2       CG321   -0.180000       12.0110           0
      3896 P11      46       ETHY     H21      HGA2     0.090000        1.0080           0
      3897 P11      46       ETHY     H23      HGA2     0.090000        1.0080           0
      3898 P11      47       ETHY     C1       CG321   -0.180000       12.0110           0
      3899 P11      47       ETHY     H11      HGA2     0.090000        1.0080           0
      3900 P11      47       ETHY     H13      HGA2     0.090000        1.0080           0
      3901 P11      47       ETHY     C2       CG321   -0.180000       12.0110           0
      3902 P11      47       ETHY     H21      HGA2     0.090000        1.0080           0
      3903 P11      47       ETHY     H23      HGA2     0.090000        1.0080           0
      3904 P11      48       ETHY     C1       CG321   -0.180000       12.0110           0
      3905 P11      48       ETHY     H11      HGA2     0.090000        1.0080           0
      3906 P11      48       ETHY     H13      HGA2     0.090000        1.0080           0
      3907 P11      48       ETHY     C2       CG321   -0.180000       12.0110           0
      3908 P11      48       ETHY     H21      HGA2     0.090000        1.0080           0
      3909 P11      48       ETHY     H23      HGA2     0.090000        1.0080           0
      3910 P11      49       ETHY     C1       CG321   -0.180000       12.0110           0
      3911 P11      49       ETHY     H11      HGA2     0.090000        1.0080           0
      3912 P11      49       ETHY     H13      HGA2     0.090000        1.0080           0
      3913 P11      49       ETHY     C2       CG321   -0.180000       12.0110           0
      3914 P11      49       ETHY     H21      HGA2     0.090000        1.0080           0
      3915 P11      49       ETHY     H23      HGA2     0.090000        1.0080           0
      3916 P11      50       ETHY     C1       CG321   -0.180000       12.0110           0
      3917 P11      50       ETHY     H11      HGA2     0.090000        1.0080           0
      3918 P11      50       ETHY     H13      HGA2     0.090000        1.0080           0
      3919 P11      50       ETHY     C2       CG321   -0.180000       12.0110           0
      3920 P11      50       ETHY     H21      HGA2     0.090000        1.0080           0
      3921 P11      50       ETHY     H23      HGA2     0.090000        1.0080           0
      3922 P11      51       ETHY     C1       CG321   -0.180000       12.0110           0
      3923 P11      51       ETHY     H11      HGA2     0.090000        1.0080           0
      3924 P11      51       ETHY     H13      HGA2     0.090000        1.0080           0
      3925 P11      51       ETHY     C2       CG321   -0.180000       12.0110           0
      3926 P11      51       ETHY     H21      HGA2     0.090000        1.0080           0
      3927 P11      51       ETHY     H23      HGA2     0.090000        1.0080           0
      3928 P11      52       ETHY     C1       CG321   -0.180000       12.0110           0
      3929 P11      52       ETHY     H11      HGA2     0.090000        1.0080           0
      3930 P11      52       ETHY     H13      HGA2     0.090000        1.0080           0
      3931 P11      52       ETHY     C2       CG321   -0.180000       12.0110           0
      3932 P11      52       ETHY     H21      HGA2     0.090000        1.0080           0
      3933 P11      52       ETHY     H23      HGA2     0.090000        1.0080           0
      3934 P11      53       ETHY     C1       CG321   -0.180000       12.0110           0
      3935 P11      53       ETHY     H11      HGA2     0.090000        1.0080           0
      3936 P11      53       ETHY     H13      HGA2     0.090000        1.0080           0
      3937 P11      53       ETHY     C2       CG321   -0.180000       12.0110           0
      3938 P11      53       ETHY     H21      HGA2     0.090000        1.0080           0
      3939 P11      53       ETHY     H23      HGA2     0.090000        1.0080           0
      3940 P11      54       ETHY     C1       CG321   -0.180000       12.0110           0
      3941 P11      54       ETHY     H11      HGA2     0.090000        1.0080           0
      3942 P11      54       ETHY     H13      HGA2     0.090000        1.0080           0
      3943 P11      54       ETHY     C2       CG321   -0.180000       12.0110           0
      3944 P11      54       ETHY     H21      HGA2     0.090000        1.0080           0
      3945 P11      54       ETHY     H23      HGA2     0.090000        1.0080           0
      3946 P11      55       ETHY     C1       CG321   -0.180000       12.0110           0
      3947 P11      55       ETHY     H11      HGA2     0.090000        1.0080           0
      3948 P11      55       ETHY     H13      HGA2     0.090000        1.0080           0
      3949 P11      55       ETHY     C2       CG321   -0.180000       12.0110           0
      3950 P11      55       ETHY     H21      HGA2     0.090000        1.0080           0
      3951 P11      55       ETHY     H23      HGA2     0.090000        1.0080           0
      3952 P11      56       ETHY     C1       CG321   -0.180000       12.0110           0
      3953 P11      56       ETHY     H11      HGA2     0.090000        1.0080           0
      3954 P11      56       ETHY     H13      HGA2     0.090000        1.0080           0
      3955 P11      56       ETHY     C2       CG321   -0.180000       12.0110           0
      3956 P11      56       ETHY     H21      HGA2     0.090000        1.0080           0
      3957 P11      56       ETHY     H23      HGA2     0.090000        1.0080           0
      3958 P11      57       ETHY     C1       CG321   -0.180000       12.0110           0
      3959 P11      57       ETHY     H11      HGA2     0.090000        1.0080           0
      3960 P11      57       ETHY     H13      HGA2     0.090000        1.0080           0
      3961 P11      57       ETHY     C2       CG321   -0.180000       12.0110           0
      3962 P11      57       ETHY     H21      HGA2     0.090000        1.0080           0
      3963 P11      57       ETHY     H23      HGA2     0.090000        1.0080           0
      3964 P11      58       ETHY     C1       CG321   -0.180000       12.0110           0
      3965 P11      58       ETHY     H11      HGA2     0.090000        1.0080           0
      3966 P11      58       ETHY     H13      HGA2     0.090000        1.0080           0
      3967 P11      58       ETHY     C2       CG321   -0.180000       12.0110           0
      3968 P11      58       ETHY     H21      HGA2     0.090000        1.0080           0
      3969 P11      58       ETHY     H23      HGA2     0.090000        1.0080           0
      3970 P11      59       ETHY     C1       CG321   -0.180000       12.0110           0
      3971 P11      59       ETHY     H11      HGA2     0.090000        1.0080           0
      3972 P11      59       ETHY     H13      HGA2     0.090000        1.0080           0
      3973 P11      59       ETHY     C2       CG321   -0.180000       12.0110           0
      3974 P11      59       ETHY     H21      HGA2     0.090000        1.0080           0
      3975 P11      59       ETHY     H23      HGA2     0.090000        1.0080           0
      3976 P11      60       ETHY     C1       CG321   -0.180000       12.0110           0
      3977 P11      60       ETHY     H11      HGA2     0.090000        1.0080           0
      3978 P11      60       ETHY     H13      HGA2     0.090000        1.0080           0
      3979 P11      60       ETHY     C2       CG331   -0.270000       12.0110           0
      3980 P11      60       ETHY     H22      HGA3     0.090000        1.0080           0
      3981 P11      60       ETHY     H21      HGA3     0.090000        1.0080           0
      3982 P11      60       ETHY     H23      HGA3     0.090000        1.0080           0
      3983 P12      1        ETHY     C1       CG331   -0.270000       12.0110           0
      3984 P12      1        ETHY     H11      HGA3     0.090000        1.0080           0
      3985 P12      1        ETHY     H12      HGA3     0.090000        1.0080           0
      3986 P12      1        ETHY     H13      HGA3     0.090000        1.0080           0
      3987 P12      1        ETHY     C2       CG321   -0.180000       12.0110           0
      3988 P12      1        ETHY     H21      HGA2     0.090000        1.0080           0
      3989 P12      1        ETHY     H23      HGA2     0.090000        1.0080           0
      3990 P12      2        ETHY     C1       CG321   -0.180000       12.0110           0
      3991 P12      2        ETHY     H11      HGA2     0.090000        1.0080           0
      3992 P12      2        ETHY     H13      HGA2     0.090000        1.0080           0
      3993 P12      2        ETHY     C2       CG321   -0.180000       12.0110           0
      3994 P12      2        ETHY     H21      HGA2     0.090000        1.0080           0
      3995 P12      2        ETHY     H23      HGA2     0.090000        1.0080           0
      3996 P12      3        ETHY     C1       CG321   -0.180000       12.0110           0
      3997 P12      3        ETHY     H11      HGA2     0.090000        1.0080           0
      3998 P12      3        ETHY     H13      HGA2     0.090000        1.0080           0
      3999 P12      3        ETHY     C2       CG321   -0.180000       12.0110           0
      4000 P12      3        ETHY     H21      HGA2     0.090000        1.0080           0
      4001 P12      3        ETHY     H23      HGA2     0.090000        1.0080           0
      4002 P12      4        ETHY     C1       CG321   -0.180000       12.0110           0
      4003 P12      4        ETHY     H11      HGA2     0.090000        1.0080           0
      4004 P12      4        ETHY     H13      HGA2     0.090000        1.0080           0
      4005 P12      4        ETHY     C2       CG321   -0.180000       12.0110           0
      4006 P12      4        ETHY     H21      HGA2     0.090000        1.0080           0
      4007 P12      4        ETHY     H23      HGA2     0.090000        1.0080           0
      4008 P12      5        ETHY     C1       CG321   -0.180000       12.0110           0
      4009 P12      5        ETHY     H11      HGA2     0.090000        1.0080           0
      4010 P12      5        ETHY     H13      HGA2     0.090000        1.0080           0
      4011 P12      5        ETHY     C2       CG321   -0.180000       12.0110           0
      4012 P12      5        ETHY     H21      HGA2     0.090000        1.0080           0
      4013 P12      5        ETHY     H23      HGA2     0.090000        1.0080           0
      4014 P12      6        ETHY     C1       CG321   -0.180000       12.0110           0
      4015 P12      6        ETHY     H11      HGA2     0.090000        1.0080           0
      4016 P12      6        ETHY     H13      HGA2     0.090000        1.0080           0
      4017 P12      6        ETHY     C2       CG321   -0.180000       12.0110           0
      4018 P12      6        ETHY     H21      HGA2     0.090000        1.0080           0
      4019 P12      6        ETHY     H23      HGA2     0.090000        1.0080           0
      4020 P12      7        ETHY     C1       CG321   -0.180000       12.0110           0
      4021 P12      7        ETHY     H11      HGA2     0.090000        1.0080           0
      4022 P12      7        ETHY     H13      HGA2     0.090000        1.0080           0
      4023 P12      7        ETHY     C2       CG321   -0.180000       12.0110           0
      4024 P12      7        ETHY     H21      HGA2     0.090000        1.0080           0
      4025 P12      7        ETHY     H23      HGA2     0.090000        1.0080           0
      4026 P12      8        ETHY     C1       CG321   -0.180000       12.0110           0
      4027 P12      8        ETHY     H11      HGA2     0.090000        1.0080           0
      4028 P12      8        ETHY     H13      HGA2     0.090000        1.0080           0
      4029 P12      8        ETHY     C2       CG321   -0.180000       12.0110           0
      4030 P12      8        ETHY     H21      HGA2     0.090000        1.0080           0
      4031 P12      8        ETHY     H23      HGA2     0.090000        1.0080           0
      4032 P12      9        ETHY     C1       CG321   -0.180000       12.0110           0
      4033 P12      9        ETHY     H11      HGA2     0.090000        1.0080           0
      4034 P12      9        ETHY     H13      HGA2     0.090000        1.0080           0
      4035 P12      9        ETHY     C2       CG321   -0.180000       12.0110           0
      4036 P12      9        ETHY     H21      HGA2     0.090000        1.0080           0
      4037 P12      9        ETHY     H23      HGA2     0.090000        1.0080           0
      4038 P12      10       ETHY     C1       CG321   -0.180000       12.0110           0
      4039 P12      10       ETHY     H11      HGA2     0.090000        1.0080           0
      4040 P12      10       ETHY     H13      HGA2     0.090000        1.0080           0
      4041 P12      10       ETHY     C2       CG321   -0.180000       12.0110           0
      4042 P12      10       ETHY     H21      HGA2     0.090000        1.0080           0
      4043 P12      10       ETHY     H23      HGA2     0.090000        1.0080           0
      4044 P12      11       ETHY     C1       CG321   -0.180000       12.0110           0
      4045 P12      11       ETHY     H11      HGA2     0.090000        1.0080           0
      4046 P12      11       ETHY     H13      HGA2     0.090000        1.0080           0
      4047 P12      11       ETHY     C2       CG321   -0.180000       12.0110           0
      4048 P12      11       ETHY     H21      HGA2     0.090000        1.0080           0
      4049 P12      11       ETHY     H23      HGA2     0.090000        1.0080           0
      4050 P12      12       ETHY     C1       CG321   -0.180000       12.0110           0
      4051 P12      12       ETHY     H11      HGA2     0.090000        1.0080           0
      4052 P12      12       ETHY     H13      HGA2     0.090000        1.0080           0
      4053 P12      12       ETHY     C2       CG321   -0.180000       12.0110           0
      4054 P12      12       ETHY     H21      HGA2     0.090000        1.0080           0
      4055 P12      12       ETHY     H23      HGA2     0.090000        1.0080           0
      4056 P12      13       ETHY     C1       CG321   -0.180000       12.0110           0
      4057 P12      13       ETHY     H11      HGA2     0.090000        1.0080           0
      4058 P12      13       ETHY     H13      HGA2     0.090000        1.0080           0
      4059 P12      13       ETHY     C2       CG321   -0.180000       12.0110           0
      4060 P12      13       ETHY     H21      HGA2     0.090000        1.0080           0
      4061 P12      13       ETHY     H23      HGA2     0.090000        1.0080           0
      4062 P12      14       ETHY     C1       CG321   -0.180000       12.0110           0
      4063 P12      14       ETHY     H11      HGA2     0.090000        1.0080           0
      4064 P12      14       ETHY     H13      HGA2     0.090000        1.0080           0
      4065 P12      14       ETHY     C2       CG321   -0.180000       12.0110           0
      4066 P12      14       ETHY     H21      HGA2     0.090000        1.0080           0
      4067 P12      14       ETHY     H23      HGA2     0.090000        1.0080           0
      4068 P12      15       ETHY     C1       CG321   -0.180000       12.0110           0
      4069 P12      15       ETHY     H11      HGA2     0.090000        1.0080           0
      4070 P12      15       ETHY     H13      HGA2     0.090000        1.0080           0
      4071 P12      15       ETHY     C2       CG321   -0.180000       12.0110           0
      4072 P12      15       ETHY     H21      HGA2     0.090000        1.0080           0
      4073 P12      15       ETHY     H23      HGA2     0.090000        1.0080           0
      4074 P12      16       ETHY     C1       CG321   -0.180000       12.0110           0
      4075 P12      16       ETHY     H11      HGA2     0.090000        1.0080           0
      4076 P12      16       ETHY     H13      HGA2     0.090000        1.0080           0
      4077 P12      16       ETHY     C2       CG321   -0.180000       12.0110           0
      4078 P12      16       ETHY     H21      HGA2     0.090000        1.0080           0
      4079 P12      16       ETHY     H23      HGA2     0.090000        1.0080           0
      4080 P12      17       ETHY     C1       CG321   -0.180000       12.0110           0
      4081 P12      17       ETHY     H11      HGA2     0.090000        1.0080           0
      4082 P12      17       ETHY     H13      HGA2     0.090000        1.0080           0
      4083 P12      17       ETHY     C2       CG321   -0.180000       12.0110           0
      4084 P12      17       ETHY     H21      HGA2     0.090000        1.0080           0
      4085 P12      17       ETHY     H23      HGA2     0.090000        1.0080           0
      4086 P12      18       ETHY     C1       CG321   -0.180000       12.0110           0
      4087 P12      18       ETHY     H11      HGA2     0.090000        1.0080           0
      4088 P12      18       ETHY     H13      HGA2     0.090000        1.0080           0
      4089 P12      18       ETHY     C2       CG321   -0.180000       12.0110           0
      4090 P12      18       ETHY     H21      HGA2     0.090000        1.0080           0
      4091 P12      18       ETHY     H23      HGA2     0.090000        1.0080           0
      4092 P12      19       ETHY     C1       CG321   -0.180000       12.0110           0
      4093 P12      19       ETHY     H11      HGA2     0.090000        1.0080           0
      4094 P12      19       ETHY     H13      HGA2     0.090000        1.0080           0
      4095 P12      19       ETHY     C2       CG321   -0.180000       12.0110           0
      4096 P12      19       ETHY     H21      HGA2     0.090000        1.0080           0
      4097 P12      19       ETHY     H23      HGA2     0.090000        1.0080           0
      4098 P12      20       ETHY     C1       CG321   -0.180000       12.0110           0
      4099 P12      20       ETHY     H11      HGA2     0.090000        1.0080           0
      4100 P12      20       ETHY     H13      HGA2     0.090000        1.0080           0
      4101 P12      20       ETHY     C2       CG321   -0.180000       12.0110           0
      4102 P12      20       ETHY     H21      HGA2     0.090000        1.0080           0
      4103 P12      20       ETHY     H23      HGA2     0.090000        1.0080           0
      4104 P12      21       ETHY     C1       CG321   -0.180000       12.0110           0
      4105 P12      21       ETHY     H11      HGA2     0.090000        1.0080           0
      4106 P12      21       ETHY     H13      HGA2     0.090000        1.0080           0
      4107 P12      21       ETHY     C2       CG321   -0.180000       12.0110           0
      4108 P12      21       ETHY     H21      HGA2     0.090000        1.0080           0
      4109 P12      21       ETHY     H23      HGA2     0.090000        1.0080           0
      4110 P12      22       ETHY     C1       CG321   -0.180000       12.0110           0
      4111 P12      22       ETHY     H11      HGA2     0.090000        1.0080           0
      4112 P12      22       ETHY     H13      HGA2     0.090000        1.0080           0
      4113 P12      22       ETHY     C2       CG321   -0.180000       12.0110           0
      4114 P12      22       ETHY     H21      HGA2     0.090000        1.0080           0
      4115 P12      22       ETHY     H23      HGA2     0.090000        1.0080           0
      4116 P12      23       ETHY     C1       CG321   -0.180000       12.0110           0
      4117 P12      23       ETHY     H11      HGA2     0.090000        1.0080           0
      4118 P12      23       ETHY     H13      HGA2     0.090000        1.0080           0
      4119 P12      23       ETHY     C2       CG321   -0.180000       12.0110           0
      4120 P12      23       ETHY     H21      HGA2     0.090000        1.0080           0
      4121 P12      23       ETHY     H23      HGA2     0.090000        1.0080           0
      4122 P12      24       ETHY     C1       CG321   -0.180000       12.0110           0
      4123 P12      24       ETHY     H11      HGA2     0.090000        1.0080           0
      4124 P12      24       ETHY     H13      HGA2     0.090000        1.0080           0
      4125 P12      24       ETHY     C2       CG321   -0.180000       12.0110           0
      4126 P12      24       ETHY     H21      HGA2     0.090000        1.0080           0
      4127 P12      24       ETHY     H23      HGA2     0.090000        1.0080           0
      4128 P12      25       ETHY     C1       CG321   -0.180000       12.0110           0
      4129 P12      25       ETHY     H11      HGA2     0.090000        1.0080           0
      4130 P12      25       ETHY     H13      HGA2     0.090000        1.0080           0
      4131 P12      25       ETHY     C2       CG321   -0.180000       12.0110           0
      4132 P12      25       ETHY     H21      HGA2     0.090000        1.0080           0
      4133 P12      25       ETHY     H23      HGA2     0.090000        1.0080           0
      4134 P12      26       ETHY     C1       CG321   -0.180000       12.0110           0
      4135 P12      26       ETHY     H11      HGA2     0.090000        1.0080           0
      4136 P12      26       ETHY     H13      HGA2     0.090000        1.0080           0
      4137 P12      26       ETHY     C2       CG321   -0.180000       12.0110           0
      4138 P12      26       ETHY     H21      HGA2     0.090000        1.0080           0
      4139 P12      26       ETHY     H23      HGA2     0.090000        1.0080           0
      4140 P12      27       ETHY     C1       CG321   -0.180000       12.0110           0
      4141 P12      27       ETHY     H11      HGA2     0.090000        1.0080           0
      4142 P12      27       ETHY     H13      HGA2     0.090000        1.0080           0
      4143 P12      27       ETHY     C2       CG321   -0.180000       12.0110           0
      4144 P12      27       ETHY     H21      HGA2     0.090000        1.0080           0
      4145 P12      27       ETHY     H23      HGA2     0.090000        1.0080           0
      4146 P12      28       ETHY     C1       CG321   -0.180000       12.0110           0
      4147 P12      28       ETHY     H11      HGA2     0.090000        1.0080           0
      4148 P12      28       ETHY     H13      HGA2     0.090000        1.0080           0
      4149 P12      28       ETHY     C2       CG321   -0.180000       12.0110           0
      4150 P12      28       ETHY     H21      HGA2     0.090000        1.0080           0
      4151 P12      28       ETHY     H23      HGA2     0.090000        1.0080           0
      4152 P12      29       ETHY     C1       CG321   -0.180000       12.0110           0
      4153 P12      29       ETHY     H11      HGA2     0.090000        1.0080           0
      4154 P12      29       ETHY     H13      HGA2     0.090000        1.0080           0
      4155 P12      29       ETHY     C2       CG321   -0.180000       12.0110           0
      4156 P12      29       ETHY     H21      HGA2     0.090000        1.0080           0
      4157 P12      29       ETHY     H23      HGA2     0.090000        1.0080           0
      4158 P12      30       ETHY     C1       CG321   -0.180000       12.0110           0
      4159 P12      30       ETHY     H11      HGA2     0.090000        1.0080           0
      4160 P12      30       ETHY     H13      HGA2     0.090000        1.0080           0
      4161 P12      30       ETHY     C2       CG321   -0.180000       12.0110           0
      4162 P12      30       ETHY     H21      HGA2     0.090000        1.0080           0
      4163 P12      30       ETHY     H23      HGA2     0.090000        1.0080           0
      4164 P12      31       ETHY     C1       CG321   -0.180000       12.0110           0
      4165 P12      31       ETHY     H11      HGA2     0.090000        1.0080           0
      4166 P12      31       ETHY     H13      HGA2     0.090000        1.0080           0
      4167 P12      31       ETHY     C2       CG321   -0.180000       12.0110           0
      4168 P12      31       ETHY     H21      HGA2     0.090000        1.0080           0
      4169 P12      31       ETHY     H23      HGA2     0.090000        1.0080           0
      4170 P12      32       ETHY     C1       CG321   -0.180000       12.0110           0
      4171 P12      32       ETHY     H11      HGA2     0.090000        1.0080           0
      4172 P12      32       ETHY     H13      HGA2     0.090000        1.0080           0
      4173 P12      32       ETHY     C2       CG321   -0.180000       12.0110           0
      4174 P12      32       ETHY     H21      HGA2     0.090000        1.0080           0
      4175 P12      32       ETHY     H23      HGA2     0.090000        1.0080           0
      4176 P12      33       ETHY     C1       CG321   -0.180000       12.0110           0
      4177 P12      33       ETHY     H11      HGA2     0.090000        1.0080           0
      4178 P12      33       ETHY     H13      HGA2     0.090000        1.0080           0
      4179 P12      33       ETHY     C2       CG321   -0.180000       12.0110           0
      4180 P12      33       ETHY     H21      HGA2     0.090000        1.0080           0
      4181 P12      33       ETHY     H23      HGA2     0.090000        1.0080           0
      4182 P12      34       ETHY     C1       CG321   -0.180000       12.0110           0
      4183 P12      34       ETHY     H11      HGA2     0.090000        1.0080           0
      4184 P12      34       ETHY     H13      HGA2     0.090000        1.0080           0
      4185 P12      34       ETHY     C2       CG321   -0.180000       12.0110           0
      4186 P12      34       ETHY     H21      HGA2     0.090000        1.0080           0
      4187 P12      34       ETHY     H23      HGA2     0.090000        1.0080           0
      4188 P12      35       ETHY     C1       CG321   -0.180000       12.0110           0
      4189 P12      35       ETHY     H11      HGA2     0.090000        1.0080           0
      4190 P12      35       ETHY     H13      HGA2     0.090000        1.0080           0
      4191 P12      35       ETHY     C2       CG321   -0.180000       12.0110           0
      4192 P12      35       ETHY     H21      HGA2     0.090000        1.0080           0
      4193 P12      35       ETHY     H23      HGA2     0.090000        1.0080           0
      4194 P12      36       ETHY     C1       CG321   -0.180000       12.0110           0
      4195 P12      36       ETHY     H11      HGA2     0.090000        1.0080           0
      4196 P12      36       ETHY     H13      HGA2     0.090000        1.0080           0
      4197 P12      36       ETHY     C2       CG321   -0.180000       12.0110           0
      4198 P12      36       ETHY     H21      HGA2     0.090000        1.0080           0
      4199 P12      36       ETHY     H23      HGA2     0.090000        1.0080           0
      4200 P12      37       ETHY     C1       CG321   -0.180000       12.0110           0
      4201 P12      37       ETHY     H11      HGA2     0.090000        1.0080           0
      4202 P12      37       ETHY     H13      HGA2     0.090000        1.0080           0
      4203 P12      37       ETHY     C2       CG321   -0.180000       12.0110           0
      4204 P12      37       ETHY     H21      HGA2     0.090000        1.0080           0
      4205 P12      37       ETHY     H23      HGA2     0.090000        1.0080           0
      4206 P12      38       ETHY     C1       CG321   -0.180000       12.0110           0
      4207 P12      38       ETHY     H11      HGA2     0.090000        1.0080           0
      4208 P12      38       ETHY     H13      HGA2     0.090000        1.0080           0
      4209 P12      38       ETHY     C2       CG321   -0.180000       12.0110           0
      4210 P12      38       ETHY     H21      HGA2     0.090000        1.0080           0
      4211 P12      38       ETHY     H23      HGA2     0.090000        1.0080           0
      4212 P12      39       ETHY     C1       CG321   -0.180000       12.0110           0
      4213 P12      39       ETHY     H11      HGA2     0.090000        1.0080           0
      4214 P12      39       ETHY     H13      HGA2     0.090000        1.0080           0
      4215 P12      39       ETHY     C2       CG321   -0.180000       12.0110           0
      4216 P12      39       ETHY     H21      HGA2     0.090000        1.0080           0
      4217 P12      39       ETHY     H23      HGA2     0.090000        1.0080           0
      4218 P12      40       ETHY     C1       CG321   -0.180000       12.0110           0
      4219 P12      40       ETHY     H11      HGA2     0.090000        1.0080           0
      4220 P12      40       ETHY     H13      HGA2     0.090000        1.0080           0
      4221 P12      40       ETHY     C2       CG321   -0.180000       12.0110           0
      4222 P12      40       ETHY     H21      HGA2     0.090000        1.0080           0
      4223 P12      40       ETHY     H23      HGA2     0.090000        1.0080           0
      4224 P12      41       ETHY     C1       CG321   -0.180000       12.0110           0
      4225 P12      41       ETHY     H11      HGA2     0.090000        1.0080           0
      4226 P12      41       ETHY     H13      HGA2     0.090000        1.0080           0
      4227 P12      41       ETHY     C2       CG321   -0.180000       12.0110           0
      4228 P12      41       ETHY     H21      HGA2     0.090000        1.0080           0
      4229 P12      41       ETHY     H23      HGA2     0.090000        1.0080           0
      4230 P12      42       ETHY     C1       CG321   -0.180000       12.0110           0
      4231 P12      42       ETHY     H11      HGA2     0.090000        1.0080           0
      4232 P12      42       ETHY     H13      HGA2     0.090000        1.0080           0
      4233 P12      42       ETHY     C2       CG321   -0.180000       12.0110           0
      4234 P12      42       ETHY     H21      HGA2     0.090000        1.0080           0
      4235 P12      42       ETHY     H23      HGA2     0.090000        1.0080           0
      4236 P12      43       ETHY     C1       CG321   -0.180000       12.0110           0
      4237 P12      43       ETHY     H11      HGA2     0.090000        1.0080           0
      4238 P12      43       ETHY     H13      HGA2     0.090000        1.0080           0
      4239 P12      43       ETHY     C2       CG321   -0.180000       12.0110           0
      4240 P12      43       ETHY     H21      HGA2     0.090000        1.0080           0
      4241 P12      43       ETHY     H23      HGA2     0.090000        1.0080           0
      4242 P12      44       ETHY     C1       CG321   -0.180000       12.0110           0
      4243 P12      44       ETHY     H11      HGA2     0.090000        1.0080           0
      4244 P12      44       ETHY     H13      HGA2     0.090000        1.0080           0
      4245 P12      44       ETHY     C2       CG321   -0.180000       12.0110           0
      4246 P12      44       ETHY     H21      HGA2     0.090000        1.0080           0
      4247 P12      44       ETHY     H23      HGA2     0.090000        1.0080           0
      4248 P12      45       ETHY     C1       CG321   -0.180000       12.0110           0
      4249 P12      45       ETHY     H11      HGA2     0.090000        1.0080           0
      4250 P12      45       ETHY     H13      HGA2     0.090000        1.0080           0
      4251 P12      45       ETHY     C2       CG321   -0.180000       12.0110           0
      4252 P12      45       ETHY     H21      HGA2     0.090000        1.0080           0
      4253 P12      45       ETHY     H23      HGA2     0.090000        1.0080           0
      4254 P12      46       ETHY     C1       CG321   -0.180000       12.0110           0
      4255 P12      46       ETHY     H11      HGA2     0.090000        1.0080           0
      4256 P12      46       ETHY     H13      HGA2     0.090000        1.0080           0
      4257 P12      46       ETHY     C2       CG321   -0.180000       12.0110           0
      4258 P12      46       ETHY     H21      HGA2     0.090000        1.0080           0
      4259 P12      46       ETHY     H23      HGA2     0.090000        1.0080           0
      4260 P12      47       ETHY     C1       CG321   -0.180000       12.0110           0
      4261 P12      47       ETHY     H11      HGA2     0.090000        1.0080           0
      4262 P12      47       ETHY     H13      HGA2     0.090000        1.0080           0
      4263 P12      47       ETHY     C2       CG321   -0.180000       12.0110           0
      4264 P12      47       ETHY     H21      HGA2     0.090000        1.0080           0
      4265 P12      47       ETHY     H23      HGA2     0.090000        1.0080           0
      4266 P12      48       ETHY     C1       CG321   -0.180000       12.0110           0
      4267 P12      48       ETHY     H11      HGA2     0.090000        1.0080           0
      4268 P12      48       ETHY     H13      HGA2     0.090000        1.0080           0
      4269 P12      48       ETHY     C2       CG321   -0.180000       12.0110           0
      4270 P12      48       ETHY     H21      HGA2     0.090000        1.0080           0
      4271 P12      48       ETHY     H23      HGA2     0.090000        1.0080           0
      4272 P12      49       ETHY     C1       CG321   -0.180000       12.0110           0
      4273 P12      49       ETHY     H11      HGA2     0.090000        1.0080           0
      4274 P12      49       ETHY     H13      HGA2     0.090000        1.0080           0
      4275 P12      49       ETHY     C2       CG321   -0.180000       12.0110           0
      4276 P12      49       ETHY     H21      HGA2     0.090000        1.0080           0
      4277 P12      49       ETHY     H23      HGA2     0.090000        1.0080           0
      4278 P12      50       ETHY     C1       CG321   -0.180000       12.0110           0
      4279 P12      50       ETHY     H11      HGA2     0.090000        1.0080           0
      4280 P12      50       ETHY     H13      HGA2     0.090000        1.0080           0
      4281 P12      50       ETHY     C2       CG321   -0.180000       12.0110           0
      4282 P12      50       ETHY     H21      HGA2     0.090000        1.0080           0
      4283 P12      50       ETHY     H23      HGA2     0.090000        1.0080           0
      4284 P12      51       ETHY     C1       CG321   -0.180000       12.0110           0
      4285 P12      51       ETHY     H11      HGA2     0.090000        1.0080           0
      4286 P12      51       ETHY     H13      HGA2     0.090000        1.0080           0
      4287 P12      51       ETHY     C2       CG321   -0.180000       12.0110           0
      4288 P12      51       ETHY     H21      HGA2     0.090000        1.0080           0
      4289 P12      51       ETHY     H23      HGA2     0.090000        1.0080           0
      4290 P12      52       ETHY     C1       CG321   -0.180000       12.0110           0
      4291 P12      52       ETHY     H11      HGA2     0.090000        1.0080           0
      4292 P12      52       ETHY     H13      HGA2     0.090000        1.0080           0
      4293 P12      52       ETHY     C2       CG321   -0.180000       12.0110           0
      4294 P12      52       ETHY     H21      HGA2     0.090000        1.0080           0
      4295 P12      52       ETHY     H23      HGA2     0.090000        1.0080           0
      4296 P12      53       ETHY     C1       CG321   -0.180000       12.0110           0
      4297 P12      53       ETHY     H11      HGA2     0.090000        1.0080           0
      4298 P12      53       ETHY     H13      HGA2     0.090000        1.0080           0
      4299 P12      53       ETHY     C2       CG321   -0.180000       12.0110           0
      4300 P12      53       ETHY     H21      HGA2     0.090000        1.0080           0
      4301 P12      53       ETHY     H23      HGA2     0.090000        1.0080           0
      4302 P12      54       ETHY     C1       CG321   -0.180000       12.0110           0
      4303 P12      54       ETHY     H11      HGA2     0.090000        1.0080           0
      4304 P12      54       ETHY     H13      HGA2     0.090000        1.0080           0
      4305 P12      54       ETHY     C2       CG321   -0.180000       12.0110           0
      4306 P12      54       ETHY     H21      HGA2     0.090000        1.0080           0
      4307 P12      54       ETHY     H23      HGA2     0.090000        1.0080           0
      4308 P12      55       ETHY     C1       CG321   -0.180000       12.0110           0
      4309 P12      55       ETHY     H11      HGA2     0.090000        1.0080           0
      4310 P12      55       ETHY     H13      HGA2     0.090000        1.0080           0
      4311 P12      55       ETHY     C2       CG321   -0.180000       12.0110           0
      4312 P12      55       ETHY     H21      HGA2     0.090000        1.0080           0
      4313 P12      55       ETHY     H23      HGA2     0.090000        1.0080           0
      4314 P12      56       ETHY     C1       CG321   -0.180000       12.0110           0
      4315 P12      56       ETHY     H11      HGA2     0.090000        1.0080           0
      4316 P12      56       ETHY     H13      HGA2     0.090000        1.0080           0
      4317 P12      56       ETHY     C2       CG321   -0.180000       12.0110           0
      4318 P12      56       ETHY     H21      HGA2     0.090000        1.0080           0
      4319 P12      56       ETHY     H23      HGA2     0.090000        1.0080           0
      4320 P12      57       ETHY     C1       CG321   -0.180000       12.0110           0
      4321 P12      57       ETHY     H11      HGA2     0.090000        1.0080           0
      4322 P12      57       ETHY     H13      HGA2     0.090000        1.0080           0
      4323 P12      57       ETHY     C2       CG321   -0.180000       12.0110           0
      4324 P12      57       ETHY     H21      HGA2     0.090000        1.0080           0
      4325 P12      57       ETHY     H23      HGA2     0.090000        1.0080           0
      4326 P12      58       ETHY     C1       CG321   -0.180000       12.0110           0
      4327 P12      58       ETHY     H11      HGA2     0.090000        1.0080           0
      4328 P12      58       ETHY     H13      HGA2     0.090000        1.0080           0
      4329 P12      58       ETHY     C2       CG321   -0.180000       12.0110           0
      4330 P12      58       ETHY     H21      HGA2     0.090000        1.0080           0
      4331 P12      58       ETHY     H23      HGA2     0.090000        1.0080           0
      4332 P12      59       ETHY     C1       CG321   -0.180000       12.0110           0
      4333 P12      59       ETHY     H11      HGA2     0.090000        1.0080           0
      4334 P12      59       ETHY     H13      HGA2     0.090000        1.0080           0
      4335 P12      59       ETHY     C2       CG321   -0.180000       12.0110           0
      4336 P12      59       ETHY     H21      HGA2     0.090000        1.0080           0
      4337 P12      59       ETHY     H23      HGA2     0.090000        1.0080           0
      4338 P12      60       ETHY     C1       CG321   -0.180000       12.0110           0
      4339 P12      60       ETHY     H11      HGA2     0.090000        1.0080           0
      4340 P12      60       ETHY     H13      HGA2     0.090000        1.0080           0
      4341 P12      60       ETHY     C2       CG331   -0.270000       12.0110           0
      4342 P12      60       ETHY     H22      HGA3     0.090000        1.0080           0
      4343 P12      60       ETHY     H21      HGA3     0.090000        1.0080           0
      4344 P12      60       ETHY     H23      HGA3     0.090000        1.0080           0
      4345 P13      1        ETHY     C1       CG331   -0.270000       12.0110           0
      4346 P13      1        ETHY     H11      HGA3     0.090000        1.0080           0
      4347 P13      1        ETHY     H12      HGA3     0.090000        1.0080           0
      4348 P13      1        ETHY     H13      HGA3     0.090000        1.0080           0
      4349 P13      1        ETHY     C2       CG321   -0.180000       12.0110           0
      4350 P13      1        ETHY     H21      HGA2     0.090000        1.0080           0
      4351 P13      1        ETHY     H23      HGA2     0.090000        1.0080           0
      4352 P13      2        ETHY     C1       CG321   -0.180000       12.0110           0
      4353 P13      2        ETHY     H11      HGA2     0.090000        1.0080           0
      4354 P13      2        ETHY     H13      HGA2     0.090000        1.0080           0
      4355 P13      2        ETHY     C2       CG321   -0.180000       12.0110           0
      4356 P13      2        ETHY     H21      HGA2     0.090000        1.0080           0
      4357 P13      2        ETHY     H23      HGA2     0.090000        1.0080           0
      4358 P13      3        ETHY     C1       CG321   -0.180000       12.0110           0
      4359 P13      3        ETHY     H11      HGA2     0.090000        1.0080           0
      4360 P13      3        ETHY     H13      HGA2     0.090000        1.0080           0
      4361 P13      3        ETHY     C2       CG321   -0.180000       12.0110           0
      4362 P13      3        ETHY     H21      HGA2     0.090000        1.0080           0
      4363 P13      3        ETHY     H23      HGA2     0.090000        1.0080           0
      4364 P13      4        ETHY     C1       CG321   -0.180000       12.0110           0
      4365 P13      4        ETHY     H11      HGA2     0.090000        1.0080           0
      4366 P13      4        ETHY     H13      HGA2     0.090000        1.0080           0
      4367 P13      4        ETHY     C2       CG321   -0.180000       12.0110           0
      4368 P13      4        ETHY     H21      HGA2     0.090000        1.0080           0
      4369 P13      4        ETHY     H23      HGA2     0.090000        1.0080           0
      4370 P13      5        ETHY     C1       CG321   -0.180000       12.0110           0
      4371 P13      5        ETHY     H11      HGA2     0.090000        1.0080           0
      4372 P13      5        ETHY     H13      HGA2     0.090000        1.0080           0
      4373 P13      5        ETHY     C2       CG321   -0.180000       12.0110           0
      4374 P13      5        ETHY     H21      HGA2     0.090000        1.0080           0
      4375 P13      5        ETHY     H23      HGA2     0.090000        1.0080           0
      4376 P13      6        ETHY     C1       CG321   -0.180000       12.0110           0
      4377 P13      6        ETHY     H11      HGA2     0.090000        1.0080           0
      4378 P13      6        ETHY     H13      HGA2     0.090000        1.0080           0
      4379 P13      6        ETHY     C2       CG321   -0.180000       12.0110           0
      4380 P13      6        ETHY     H21      HGA2     0.090000        1.0080           0
      4381 P13      6        ETHY     H23      HGA2     0.090000        1.0080           0
      4382 P13      7        ETHY     C1       CG321   -0.180000       12.0110           0
      4383 P13      7        ETHY     H11      HGA2     0.090000        1.0080           0
      4384 P13      7        ETHY     H13      HGA2     0.090000        1.0080           0
      4385 P13      7        ETHY     C2       CG321   -0.180000       12.0110           0
      4386 P13      7        ETHY     H21      HGA2     0.090000        1.0080           0
      4387 P13      7        ETHY     H23      HGA2     0.090000        1.0080           0
      4388 P13      8        ETHY     C1       CG321   -0.180000       12.0110           0
      4389 P13      8        ETHY     H11      HGA2     0.090000        1.0080           0
      4390 P13      8        ETHY     H13      HGA2     0.090000        1.0080           0
      4391 P13      8        ETHY     C2       CG321   -0.180000       12.0110           0
      4392 P13      8        ETHY     H21      HGA2     0.090000        1.0080           0
      4393 P13      8        ETHY     H23      HGA2     0.090000        1.0080           0
      4394 P13      9        ETHY     C1       CG321   -0.180000       12.0110           0
      4395 P13      9        ETHY     H11      HGA2     0.090000        1.0080           0
      4396 P13      9        ETHY     H13      HGA2     0.090000        1.0080           0
      4397 P13      9        ETHY     C2       CG321   -0.180000       12.0110           0
      4398 P13      9        ETHY     H21      HGA2     0.090000        1.0080           0
      4399 P13      9        ETHY     H23      HGA2     0.090000        1.0080           0
      4400 P13      10       ETHY     C1       CG321   -0.180000       12.0110           0
      4401 P13      10       ETHY     H11      HGA2     0.090000        1.0080           0
      4402 P13      10       ETHY     H13      HGA2     0.090000        1.0080           0
      4403 P13      10       ETHY     C2       CG321   -0.180000       12.0110           0
      4404 P13      10       ETHY     H21      HGA2     0.090000        1.0080           0
      4405 P13      10       ETHY     H23      HGA2     0.090000        1.0080           0
      4406 P13      11       ETHY     C1       CG321   -0.180000       12.0110           0
      4407 P13      11       ETHY     H11      HGA2     0.090000        1.0080           0
      4408 P13      11       ETHY     H13      HGA2     0.090000        1.0080           0
      4409 P13      11       ETHY     C2       CG321   -0.180000       12.0110           0
      4410 P13      11       ETHY     H21      HGA2     0.090000        1.0080           0
      4411 P13      11       ETHY     H23      HGA2     0.090000        1.0080           0
      4412 P13      12       ETHY     C1       CG321   -0.180000       12.0110           0
      4413 P13      12       ETHY     H11      HGA2     0.090000        1.0080           0
      4414 P13      12       ETHY     H13      HGA2     0.090000        1.0080           0
      4415 P13      12       ETHY     C2       CG321   -0.180000       12.0110           0
      4416 P13      12       ETHY     H21      HGA2     0.090000        1.0080           0
      4417 P13      12       ETHY     H23      HGA2     0.090000        1.0080           0
      4418 P13      13       ETHY     C1       CG321   -0.180000       12.0110           0
      4419 P13      13       ETHY     H11      HGA2     0.090000        1.0080           0
      4420 P13      13       ETHY     H13      HGA2     0.090000        1.0080           0
      4421 P13      13       ETHY     C2       CG321   -0.180000       12.0110           0
      4422 P13      13       ETHY     H21      HGA2     0.090000        1.0080           0
      4423 P13      13       ETHY     H23      HGA2     0.090000        1.0080           0
      4424 P13      14       ETHY     C1       CG321   -0.180000       12.0110           0
      4425 P13      14       ETHY     H11      HGA2     0.090000        1.0080           0
      4426 P13      14       ETHY     H13      HGA2     0.090000        1.0080           0
      4427 P13      14       ETHY     C2       CG321   -0.180000       12.0110           0
      4428 P13      14       ETHY     H21      HGA2     0.090000        1.0080           0
      4429 P13      14       ETHY     H23      HGA2     0.090000        1.0080           0
      4430 P13      15       ETHY     C1       CG321   -0.180000       12.0110           0
      4431 P13      15       ETHY     H11      HGA2     0.090000        1.0080           0
      4432 P13      15       ETHY     H13      HGA2     0.090000        1.0080           0
      4433 P13      15       ETHY     C2       CG321   -0.180000       12.0110           0
      4434 P13      15       ETHY     H21      HGA2     0.090000        1.0080           0
      4435 P13      15       ETHY     H23      HGA2     0.090000        1.0080           0
      4436 P13      16       ETHY     C1       CG321   -0.180000       12.0110           0
      4437 P13      16       ETHY     H11      HGA2     0.090000        1.0080           0
      4438 P13      16       ETHY     H13      HGA2     0.090000        1.0080           0
      4439 P13      16       ETHY     C2       CG321   -0.180000       12.0110           0
      4440 P13      16       ETHY     H21      HGA2     0.090000        1.0080           0
      4441 P13      16       ETHY     H23      HGA2     0.090000        1.0080           0
      4442 P13      17       ETHY     C1       CG321   -0.180000       12.0110           0
      4443 P13      17       ETHY     H11      HGA2     0.090000        1.0080           0
      4444 P13      17       ETHY     H13      HGA2     0.090000        1.0080           0
      4445 P13      17       ETHY     C2       CG321   -0.180000       12.0110           0
      4446 P13      17       ETHY     H21      HGA2     0.090000        1.0080           0
      4447 P13      17       ETHY     H23      HGA2     0.090000        1.0080           0
      4448 P13      18       ETHY     C1       CG321   -0.180000       12.0110           0
      4449 P13      18       ETHY     H11      HGA2     0.090000        1.0080           0
      4450 P13      18       ETHY     H13      HGA2     0.090000        1.0080           0
      4451 P13      18       ETHY     C2       CG321   -0.180000       12.0110           0
      4452 P13      18       ETHY     H21      HGA2     0.090000        1.0080           0
      4453 P13      18       ETHY     H23      HGA2     0.090000        1.0080           0
      4454 P13      19       ETHY     C1       CG321   -0.180000       12.0110           0
      4455 P13      19       ETHY     H11      HGA2     0.090000        1.0080           0
      4456 P13      19       ETHY     H13      HGA2     0.090000        1.0080           0
      4457 P13      19       ETHY     C2       CG321   -0.180000       12.0110           0
      4458 P13      19       ETHY     H21      HGA2     0.090000        1.0080           0
      4459 P13      19       ETHY     H23      HGA2     0.090000        1.0080           0
      4460 P13      20       ETHY     C1       CG321   -0.180000       12.0110           0
      4461 P13      20       ETHY     H11      HGA2     0.090000        1.0080           0
      4462 P13      20       ETHY     H13      HGA2     0.090000        1.0080           0
      4463 P13      20       ETHY     C2       CG321   -0.180000       12.0110           0
      4464 P13      20       ETHY     H21      HGA2     0.090000        1.0080           0
      4465 P13      20       ETHY     H23      HGA2     0.090000        1.0080           0
      4466 P13      21       ETHY     C1       CG321   -0.180000       12.0110           0
      4467 P13      21       ETHY     H11      HGA2     0.090000        1.0080           0
      4468 P13      21       ETHY     H13      HGA2     0.090000        1.0080           0
      4469 P13      21       ETHY     C2       CG321   -0.180000       12.0110           0
      4470 P13      21       ETHY     H21      HGA2     0.090000        1.0080           0
      4471 P13      21       ETHY     H23      HGA2     0.090000        1.0080           0
      4472 P13      22       ETHY     C1       CG321   -0.180000       12.0110           0
      4473 P13      22       ETHY     H11      HGA2     0.090000        1.0080           0
      4474 P13      22       ETHY     H13      HGA2     0.090000        1.0080           0
      4475 P13      22       ETHY     C2       CG321   -0.180000       12.0110           0
      4476 P13      22       ETHY     H21      HGA2     0.090000        1.0080           0
      4477 P13      22       ETHY     H23      HGA2     0.090000        1.0080           0
      4478 P13      23       ETHY     C1       CG321   -0.180000       12.0110           0
      4479 P13      23       ETHY     H11      HGA2     0.090000        1.0080           0
      4480 P13      23       ETHY     H13      HGA2     0.090000        1.0080           0
      4481 P13      23       ETHY     C2       CG321   -0.180000       12.0110           0
      4482 P13      23       ETHY     H21      HGA2     0.090000        1.0080           0
      4483 P13      23       ETHY     H23      HGA2     0.090000        1.0080           0
      4484 P13      24       ETHY     C1       CG321   -0.180000       12.0110           0
      4485 P13      24       ETHY     H11      HGA2     0.090000        1.0080           0
      4486 P13      24       ETHY     H13      HGA2     0.090000        1.0080           0
      4487 P13      24       ETHY     C2       CG321   -0.180000       12.0110           0
      4488 P13      24       ETHY     H21      HGA2     0.090000        1.0080           0
      4489 P13      24       ETHY     H23      HGA2     0.090000        1.0080           0
      4490 P13      25       ETHY     C1       CG321   -0.180000       12.0110           0
      4491 P13      25       ETHY     H11      HGA2     0.090000        1.0080           0
      4492 P13      25       ETHY     H13      HGA2     0.090000        1.0080           0
      4493 P13      25       ETHY     C2       CG321   -0.180000       12.0110           0
      4494 P13      25       ETHY     H21      HGA2     0.090000        1.0080           0
      4495 P13      25       ETHY     H23      HGA2     0.090000        1.0080           0
      4496 P13      26       ETHY     C1       CG321   -0.180000       12.0110           0
      4497 P13      26       ETHY     H11      HGA2     0.090000        1.0080           0
      4498 P13      26       ETHY     H13      HGA2     0.090000        1.0080           0
      4499 P13      26       ETHY     C2       CG321   -0.180000       12.0110           0
      4500 P13      26       ETHY     H21      HGA2     0.090000        1.0080           0
      4501 P13      26       ETHY     H23      HGA2     0.090000        1.0080           0
      4502 P13      27       ETHY     C1       CG321   -0.180000       12.0110           0
      4503 P13      27       ETHY     H11      HGA2     0.090000        1.0080           0
      4504 P13      27       ETHY     H13      HGA2     0.090000        1.0080           0
      4505 P13      27       ETHY     C2       CG321   -0.180000       12.0110           0
      4506 P13      27       ETHY     H21      HGA2     0.090000        1.0080           0
      4507 P13      27       ETHY     H23      HGA2     0.090000        1.0080           0
      4508 P13      28       ETHY     C1       CG321   -0.180000       12.0110           0
      4509 P13      28       ETHY     H11      HGA2     0.090000        1.0080           0
      4510 P13      28       ETHY     H13      HGA2     0.090000        1.0080           0
      4511 P13      28       ETHY     C2       CG321   -0.180000       12.0110           0
      4512 P13      28       ETHY     H21      HGA2     0.090000        1.0080           0
      4513 P13      28       ETHY     H23      HGA2     0.090000        1.0080           0
      4514 P13      29       ETHY     C1       CG321   -0.180000       12.0110           0
      4515 P13      29       ETHY     H11      HGA2     0.090000        1.0080           0
      4516 P13      29       ETHY     H13      HGA2     0.090000        1.0080           0
      4517 P13      29       ETHY     C2       CG321   -0.180000       12.0110           0
      4518 P13      29       ETHY     H21      HGA2     0.090000        1.0080           0
      4519 P13      29       ETHY     H23      HGA2     0.090000        1.0080           0
      4520 P13      30       ETHY     C1       CG321   -0.180000       12.0110           0
      4521 P13      30       ETHY     H11      HGA2     0.090000        1.0080           0
      4522 P13      30       ETHY     H13      HGA2     0.090000        1.0080           0
      4523 P13      30       ETHY     C2       CG321   -0.180000       12.0110           0
      4524 P13      30       ETHY     H21      HGA2     0.090000        1.0080           0
      4525 P13      30       ETHY     H23      HGA2     0.090000        1.0080           0
      4526 P13      31       ETHY     C1       CG321   -0.180000       12.0110           0
      4527 P13      31       ETHY     H11      HGA2     0.090000        1.0080           0
      4528 P13      31       ETHY     H13      HGA2     0.090000        1.0080           0
      4529 P13      31       ETHY     C2       CG321   -0.180000       12.0110           0
      4530 P13      31       ETHY     H21      HGA2     0.090000        1.0080           0
      4531 P13      31       ETHY     H23      HGA2     0.090000        1.0080           0
      4532 P13      32       ETHY     C1       CG321   -0.180000       12.0110           0
      4533 P13      32       ETHY     H11      HGA2     0.090000        1.0080           0
      4534 P13      32       ETHY     H13      HGA2     0.090000        1.0080           0
      4535 P13      32       ETHY     C2       CG321   -0.180000       12.0110           0
      4536 P13      32       ETHY     H21      HGA2     0.090000        1.0080           0
      4537 P13      32       ETHY     H23      HGA2     0.090000        1.0080           0
      4538 P13      33       ETHY     C1       CG321   -0.180000       12.0110           0
      4539 P13      33       ETHY     H11      HGA2     0.090000        1.0080           0
      4540 P13      33       ETHY     H13      HGA2     0.090000        1.0080           0
      4541 P13      33       ETHY     C2       CG321   -0.180000       12.0110           0
      4542 P13      33       ETHY     H21      HGA2     0.090000        1.0080           0
      4543 P13      33       ETHY     H23      HGA2     0.090000        1.0080           0
      4544 P13      34       ETHY     C1       CG321   -0.180000       12.0110           0
      4545 P13      34       ETHY     H11      HGA2     0.090000        1.0080           0
      4546 P13      34       ETHY     H13      HGA2     0.090000        1.0080           0
      4547 P13      34       ETHY     C2       CG321   -0.180000       12.0110           0
      4548 P13      34       ETHY     H21      HGA2     0.090000        1.0080           0
      4549 P13      34       ETHY     H23      HGA2     0.090000        1.0080           0
      4550 P13      35       ETHY     C1       CG321   -0.180000       12.0110           0
      4551 P13      35       ETHY     H11      HGA2     0.090000        1.0080           0
      4552 P13      35       ETHY     H13      HGA2     0.090000        1.0080           0
      4553 P13      35       ETHY     C2       CG321   -0.180000       12.0110           0
      4554 P13      35       ETHY     H21      HGA2     0.090000        1.0080           0
      4555 P13      35       ETHY     H23      HGA2     0.090000        1.0080           0
      4556 P13      36       ETHY     C1       CG321   -0.180000       12.0110           0
      4557 P13      36       ETHY     H11      HGA2     0.090000        1.0080           0
      4558 P13      36       ETHY     H13      HGA2     0.090000        1.0080           0
      4559 P13      36       ETHY     C2       CG321   -0.180000       12.0110           0
      4560 P13      36       ETHY     H21      HGA2     0.090000        1.0080           0
      4561 P13      36       ETHY     H23      HGA2     0.090000        1.0080           0
      4562 P13      37       ETHY     C1       CG321   -0.180000       12.0110           0
      4563 P13      37       ETHY     H11      HGA2     0.090000        1.0080           0
      4564 P13      37       ETHY     H13      HGA2     0.090000        1.0080           0
      4565 P13      37       ETHY     C2       CG321   -0.180000       12.0110           0
      4566 P13      37       ETHY     H21      HGA2     0.090000        1.0080           0
      4567 P13      37       ETHY     H23      HGA2     0.090000        1.0080           0
      4568 P13      38       ETHY     C1       CG321   -0.180000       12.0110           0
      4569 P13      38       ETHY     H11      HGA2     0.090000        1.0080           0
      4570 P13      38       ETHY     H13      HGA2     0.090000        1.0080           0
      4571 P13      38       ETHY     C2       CG321   -0.180000       12.0110           0
      4572 P13      38       ETHY     H21      HGA2     0.090000        1.0080           0
      4573 P13      38       ETHY     H23      HGA2     0.090000        1.0080           0
      4574 P13      39       ETHY     C1       CG321   -0.180000       12.0110           0
      4575 P13      39       ETHY     H11      HGA2     0.090000        1.0080           0
      4576 P13      39       ETHY     H13      HGA2     0.090000        1.0080           0
      4577 P13      39       ETHY     C2       CG321   -0.180000       12.0110           0
      4578 P13      39       ETHY     H21      HGA2     0.090000        1.0080           0
      4579 P13      39       ETHY     H23      HGA2     0.090000        1.0080           0
      4580 P13      40       ETHY     C1       CG321   -0.180000       12.0110           0
      4581 P13      40       ETHY     H11      HGA2     0.090000        1.0080           0
      4582 P13      40       ETHY     H13      HGA2     0.090000        1.0080           0
      4583 P13      40       ETHY     C2       CG321   -0.180000       12.0110           0
      4584 P13      40       ETHY     H21      HGA2     0.090000        1.0080           0
      4585 P13      40       ETHY     H23      HGA2     0.090000        1.0080           0
      4586 P13      41       ETHY     C1       CG321   -0.180000       12.0110           0
      4587 P13      41       ETHY     H11      HGA2     0.090000        1.0080           0
      4588 P13      41       ETHY     H13      HGA2     0.090000        1.0080           0
      4589 P13      41       ETHY     C2       CG321   -0.180000       12.0110           0
      4590 P13      41       ETHY     H21      HGA2     0.090000        1.0080           0
      4591 P13      41       ETHY     H23      HGA2     0.090000        1.0080           0
      4592 P13      42       ETHY     C1       CG321   -0.180000       12.0110           0
      4593 P13      42       ETHY     H11      HGA2     0.090000        1.0080           0
      4594 P13      42       ETHY     H13      HGA2     0.090000        1.0080           0
      4595 P13      42       ETHY     C2       CG321   -0.180000       12.0110           0
      4596 P13      42       ETHY     H21      HGA2     0.090000        1.0080           0
      4597 P13      42       ETHY     H23      HGA2     0.090000        1.0080           0
      4598 P13      43       ETHY     C1       CG321   -0.180000       12.0110           0
      4599 P13      43       ETHY     H11      HGA2     0.090000        1.0080           0
      4600 P13      43       ETHY     H13      HGA2     0.090000        1.0080           0
      4601 P13      43       ETHY     C2       CG321   -0.180000       12.0110           0
      4602 P13      43       ETHY     H21      HGA2     0.090000        1.0080           0
      4603 P13      43       ETHY     H23      HGA2     0.090000        1.0080           0
      4604 P13      44       ETHY     C1       CG321   -0.180000       12.0110           0
      4605 P13      44       ETHY     H11      HGA2     0.090000        1.0080           0
      4606 P13      44       ETHY     H13      HGA2     0.090000        1.0080           0
      4607 P13      44       ETHY     C2       CG321   -0.180000       12.0110           0
      4608 P13      44       ETHY     H21      HGA2     0.090000        1.0080           0
      4609 P13      44       ETHY     H23      HGA2     0.090000        1.0080           0
      4610 P13      45       ETHY     C1       CG321   -0.180000       12.0110           0
      4611 P13      45       ETHY     H11      HGA2     0.090000        1.0080           0
      4612 P13      45       ETHY     H13      HGA2     0.090000        1.0080           0
      4613 P13      45       ETHY     C2       CG321   -0.180000       12.0110           0
      4614 P13      45       ETHY     H21      HGA2     0.090000        1.0080           0
      4615 P13      45       ETHY     H23      HGA2     0.090000        1.0080           0
      4616 P13      46       ETHY     C1       CG321   -0.180000       12.0110           0
      4617 P13      46       ETHY     H11      HGA2     0.090000        1.0080           0
      4618 P13      46       ETHY     H13      HGA2     0.090000        1.0080           0
      4619 P13      46       ETHY     C2       CG321   -0.180000       12.0110           0
      4620 P13      46       ETHY     H21      HGA2     0.090000        1.0080           0
      4621 P13      46       ETHY     H23      HGA2     0.090000        1.0080           0
      4622 P13      47       ETHY     C1       CG321   -0.180000       12.0110           0
      4623 P13      47       ETHY     H11      HGA2     0.090000        1.0080           0
      4624 P13      47       ETHY     H13      HGA2     0.090000        1.0080           0
      4625 P13      47       ETHY     C2       CG321   -0.180000       12.0110           0
      4626 P13      47       ETHY     H21      HGA2     0.090000        1.0080           0
      4627 P13      47       ETHY     H23      HGA2     0.090000        1.0080           0
      4628 P13      48       ETHY     C1       CG321   -0.180000       12.0110           0
      4629 P13      48       ETHY     H11      HGA2     0.090000        1.0080           0
      4630 P13      48       ETHY     H13      HGA2     0.090000        1.0080           0
      4631 P13      48       ETHY     C2       CG321   -0.180000       12.0110           0
      4632 P13      48       ETHY     H21      HGA2     0.090000        1.0080           0
      4633 P13      48       ETHY     H23      HGA2     0.090000        1.0080           0
      4634 P13      49       ETHY     C1       CG321   -0.180000       12.0110           0
      4635 P13      49       ETHY     H11      HGA2     0.090000        1.0080           0
      4636 P13      49       ETHY     H13      HGA2     0.090000        1.0080           0
      4637 P13      49       ETHY     C2       CG321   -0.180000       12.0110           0
      4638 P13      49       ETHY     H21      HGA2     0.090000        1.0080           0
      4639 P13      49       ETHY     H23      HGA2     0.090000        1.0080           0
      4640 P13      50       ETHY     C1       CG321   -0.180000       12.0110           0
      4641 P13      50       ETHY     H11      HGA2     0.090000        1.0080           0
      4642 P13      50       ETHY     H13      HGA2     0.090000        1.0080           0
      4643 P13      50       ETHY     C2       CG321   -0.180000       12.0110           0
      4644 P13      50       ETHY     H21      HGA2     0.090000        1.0080           0
      4645 P13      50       ETHY     H23      HGA2     0.090000        1.0080           0
      4646 P13      51       ETHY     C1       CG321   -0.180000       12.0110           0
      4647 P13      51       ETHY     H11      HGA2     0.090000        1.0080           0
      4648 P13      51       ETHY     H13      HGA2     0.090000        1.0080           0
      4649 P13      51       ETHY     C2       CG321   -0.180000       12.0110           0
      4650 P13      51       ETHY     H21      HGA2     0.090000        1.0080           0
      4651 P13      51       ETHY     H23      HGA2     0.090000        1.0080           0
      4652 P13      52       ETHY     C1       CG321   -0.180000       12.0110           0
      4653 P13      52       ETHY     H11      HGA2     0.090000        1.0080           0
      4654 P13      52       ETHY     H13      HGA2     0.090000        1.0080           0
      4655 P13      52       ETHY     C2       CG321   -0.180000       12.0110           0
      4656 P13      52       ETHY     H21      HGA2     0.090000        1.0080           0
      4657 P13      52       ETHY     H23      HGA2     0.090000        1.0080           0
      4658 P13      53       ETHY     C1       CG321   -0.180000       12.0110           0
      4659 P13      53       ETHY     H11      HGA2     0.090000        1.0080           0
      4660 P13      53       ETHY     H13      HGA2     0.090000        1.0080           0
      4661 P13      53       ETHY     C2       CG321   -0.180000       12.0110           0
      4662 P13      53       ETHY     H21      HGA2     0.090000        1.0080           0
      4663 P13      53       ETHY     H23      HGA2     0.090000        1.0080           0
      4664 P13      54       ETHY     C1       CG321   -0.180000       12.0110           0
      4665 P13      54       ETHY     H11      HGA2     0.090000        1.0080           0
      4666 P13      54       ETHY     H13      HGA2     0.090000        1.0080           0
      4667 P13      54       ETHY     C2       CG321   -0.180000       12.0110           0
      4668 P13      54       ETHY     H21      HGA2     0.090000        1.0080           0
      4669 P13      54       ETHY     H23      HGA2     0.090000        1.0080           0
      4670 P13      55       ETHY     C1       CG321   -0.180000       12.0110           0
      4671 P13      55       ETHY     H11      HGA2     0.090000        1.0080           0
      4672 P13      55       ETHY     H13      HGA2     0.090000        1.0080           0
      4673 P13      55       ETHY     C2       CG321   -0.180000       12.0110           0
      4674 P13      55       ETHY     H21      HGA2     0.090000        1.0080           0
      4675 P13      55       ETHY     H23      HGA2     0.090000        1.0080           0
      4676 P13      56       ETHY     C1       CG321   -0.180000       12.0110           0
      4677 P13      56       ETHY     H11      HGA2     0.090000        1.0080           0
      4678 P13      56       ETHY     H13      HGA2     0.090000        1.0080           0
      4679 P13      56       ETHY     C2       CG321   -0.180000       12.0110           0
      4680 P13      56       ETHY     H21      HGA2     0.090000        1.0080           0
      4681 P13      56       ETHY     H23      HGA2     0.090000        1.0080           0
      4682 P13      57       ETHY     C1       CG321   -0.180000       12.0110           0
      4683 P13      57       ETHY     H11      HGA2     0.090000        1.0080           0
      4684 P13      57       ETHY     H13      HGA2     0.090000        1.0080           0
      4685 P13      57       ETHY     C2       CG321   -0.180000       12.0110           0
      4686 P13      57       ETHY     H21      HGA2     0.090000        1.0080           0
      4687 P13      57       ETHY     H23      HGA2     0.090000        1.0080           0
      4688 P13      58       ETHY     C1       CG321   -0.180000       12.0110           0
      4689 P13      58       ETHY     H11      HGA2     0.090000        1.0080           0
      4690 P13      58       ETHY     H13      HGA2     0.090000        1.0080           0
      4691 P13      58       ETHY     C2       CG321   -0.180000       12.0110           0
      4692 P13      58       ETHY     H21      HGA2     0.090000        1.0080           0
      4693 P13      58       ETHY     H23      HGA2     0.090000        1.0080           0
      4694 P13      59       ETHY     C1       CG321   -0.180000       12.0110           0
      4695 P13      59       ETHY     H11      HGA2     0.090000        1.0080           0
      4696 P13      59       ETHY     H13      HGA2     0.090000        1.0080           0
      4697 P13      59       ETHY     C2       CG321   -0.180000       12.0110           0
      4698 P13      59       ETHY     H21      HGA2     0.090000        1.0080           0
      4699 P13      59       ETHY     H23      HGA2     0.090000        1.0080           0
      4700 P13      60       ETHY     C1       CG321   -0.180000       12.0110           0
      4701 P13      60       ETHY     H11      HGA2     0.090000        1.0080           0
      4702 P13      60       ETHY     H13      HGA2     0.090000        1.0080           0
      4703 P13      60       ETHY     C2       CG331   -0.270000       12.0110           0
      4704 P13      60       ETHY     H22      HGA3     0.090000        1.0080           0
      4705 P13      60       ETHY     H21      HGA3     0.090000        1.0080           0
      4706 P13      60       ETHY     H23      HGA3     0.090000        1.0080           0
      4707 P14      1        ETHY     C1       CG331   -0.270000       12.0110           0
      4708 P14      1        ETHY     H11      HGA3     0.090000        1.0080           0
      4709 P14      1        ETHY     H12      HGA3     0.090000        1.0080           0
      4710 P14      1        ETHY     H13      HGA3     0.090000        1.0080           0
      4711 P14      1        ETHY     C2       CG321   -0.180000       12.0110           0
      4712 P14      1        ETHY     H21      HGA2     0.090000        1.0080           0
      4713 P14      1        ETHY     H23      HGA2     0.090000        1.0080           0
      4714 P14      2        ETHY     C1       CG321   -0.180000       12.0110           0
      4715 P14      2        ETHY     H11      HGA2     0.090000        1.0080           0
      4716 P14      2        ETHY     H13      HGA2     0.090000        1.0080           0
      4717 P14      2        ETHY     C2       CG321   -0.180000       12.0110           0
      4718 P14      2        ETHY     H21      HGA2     0.090000        1.0080           0
      4719 P14      2        ETHY     H23      HGA2     0.090000        1.0080           0
      4720 P14      3        ETHY     C1       CG321   -0.180000       12.0110           0
      4721 P14      3        ETHY     H11      HGA2     0.090000        1.0080           0
      4722 P14      3        ETHY     H13      HGA2     0.090000        1.0080           0
      4723 P14      3        ETHY     C2       CG321   -0.180000       12.0110           0
      4724 P14      3        ETHY     H21      HGA2     0.090000        1.0080           0
      4725 P14      3        ETHY     H23      HGA2     0.090000        1.0080           0
      4726 P14      4        ETHY     C1       CG321   -0.180000       12.0110           0
      4727 P14      4        ETHY     H11      HGA2     0.090000        1.0080           0
      4728 P14      4        ETHY     H13      HGA2     0.090000        1.0080           0
      4729 P14      4        ETHY     C2       CG321   -0.180000       12.0110           0
      4730 P14      4        ETHY     H21      HGA2     0.090000        1.0080           0
      4731 P14      4        ETHY     H23      HGA2     0.090000        1.0080           0
      4732 P14      5        ETHY     C1       CG321   -0.180000       12.0110           0
      4733 P14      5        ETHY     H11      HGA2     0.090000        1.0080           0
      4734 P14      5        ETHY     H13      HGA2     0.090000        1.0080           0
      4735 P14      5        ETHY     C2       CG321   -0.180000       12.0110           0
      4736 P14      5        ETHY     H21      HGA2     0.090000        1.0080           0
      4737 P14      5        ETHY     H23      HGA2     0.090000        1.0080           0
      4738 P14      6        ETHY     C1       CG321   -0.180000       12.0110           0
      4739 P14      6        ETHY     H11      HGA2     0.090000        1.0080           0
      4740 P14      6        ETHY     H13      HGA2     0.090000        1.0080           0
      4741 P14      6        ETHY     C2       CG321   -0.180000       12.0110           0
      4742 P14      6        ETHY     H21      HGA2     0.090000        1.0080           0
      4743 P14      6        ETHY     H23      HGA2     0.090000        1.0080           0
      4744 P14      7        ETHY     C1       CG321   -0.180000       12.0110           0
      4745 P14      7        ETHY     H11      HGA2     0.090000        1.0080           0
      4746 P14      7        ETHY     H13      HGA2     0.090000        1.0080           0
      4747 P14      7        ETHY     C2       CG321   -0.180000       12.0110           0
      4748 P14      7        ETHY     H21      HGA2     0.090000        1.0080           0
      4749 P14      7        ETHY     H23      HGA2     0.090000        1.0080           0
      4750 P14      8        ETHY     C1       CG321   -0.180000       12.0110           0
      4751 P14      8        ETHY     H11      HGA2     0.090000        1.0080           0
      4752 P14      8        ETHY     H13      HGA2     0.090000        1.0080           0
      4753 P14      8        ETHY     C2       CG321   -0.180000       12.0110           0
      4754 P14      8        ETHY     H21      HGA2     0.090000        1.0080           0
      4755 P14      8        ETHY     H23      HGA2     0.090000        1.0080           0
      4756 P14      9        ETHY     C1       CG321   -0.180000       12.0110           0
      4757 P14      9        ETHY     H11      HGA2     0.090000        1.0080           0
      4758 P14      9        ETHY     H13      HGA2     0.090000        1.0080           0
      4759 P14      9        ETHY     C2       CG321   -0.180000       12.0110           0
      4760 P14      9        ETHY     H21      HGA2     0.090000        1.0080           0
      4761 P14      9        ETHY     H23      HGA2     0.090000        1.0080           0
      4762 P14      10       ETHY     C1       CG321   -0.180000       12.0110           0
      4763 P14      10       ETHY     H11      HGA2     0.090000        1.0080           0
      4764 P14      10       ETHY     H13      HGA2     0.090000        1.0080           0
      4765 P14      10       ETHY     C2       CG321   -0.180000       12.0110           0
      4766 P14      10       ETHY     H21      HGA2     0.090000        1.0080           0
      4767 P14      10       ETHY     H23      HGA2     0.090000        1.0080           0
      4768 P14      11       ETHY     C1       CG321   -0.180000       12.0110           0
      4769 P14      11       ETHY     H11      HGA2     0.090000        1.0080           0
      4770 P14      11       ETHY     H13      HGA2     0.090000        1.0080           0
      4771 P14      11       ETHY     C2       CG321   -0.180000       12.0110           0
      4772 P14      11       ETHY     H21      HGA2     0.090000        1.0080           0
      4773 P14      11       ETHY     H23      HGA2     0.090000        1.0080           0
      4774 P14      12       ETHY     C1       CG321   -0.180000       12.0110           0
      4775 P14      12       ETHY     H11      HGA2     0.090000        1.0080           0
      4776 P14      12       ETHY     H13      HGA2     0.090000        1.0080           0
      4777 P14      12       ETHY     C2       CG321   -0.180000       12.0110           0
      4778 P14      12       ETHY     H21      HGA2     0.090000        1.0080           0
      4779 P14      12       ETHY     H23      HGA2     0.090000        1.0080           0
      4780 P14      13       ETHY     C1       CG321   -0.180000       12.0110           0
      4781 P14      13       ETHY     H11      HGA2     0.090000        1.0080           0
      4782 P14      13       ETHY     H13      HGA2     0.090000        1.0080           0
      4783 P14      13       ETHY     C2       CG321   -0.180000       12.0110           0
      4784 P14      13       ETHY     H21      HGA2     0.090000        1.0080           0
      4785 P14      13       ETHY     H23      HGA2     0.090000        1.0080           0
      4786 P14      14       ETHY     C1       CG321   -0.180000       12.0110           0
      4787 P14      14       ETHY     H11      HGA2     0.090000        1.0080           0
      4788 P14      14       ETHY     H13      HGA2     0.090000        1.0080           0
      4789 P14      14       ETHY     C2       CG321   -0.180000       12.0110           0
      4790 P14      14       ETHY     H21      HGA2     0.090000        1.0080           0
      4791 P14      14       ETHY     H23      HGA2     0.090000        1.0080           0
      4792 P14      15       ETHY     C1       CG321   -0.180000       12.0110           0
      4793 P14      15       ETHY     H11      HGA2     0.090000        1.0080           0
      4794 P14      15       ETHY     H13      HGA2     0.090000        1.0080           0
      4795 P14      15       ETHY     C2       CG321   -0.180000       12.0110           0
      4796 P14      15       ETHY     H21      HGA2     0.090000        1.0080           0
      4797 P14      15       ETHY     H23      HGA2     0.090000        1.0080           0
      4798 P14      16       ETHY     C1       CG321   -0.180000       12.0110           0
      4799 P14      16       ETHY     H11      HGA2     0.090000        1.0080           0
      4800 P14      16       ETHY     H13      HGA2     0.090000        1.0080           0
      4801 P14      16       ETHY     C2       CG321   -0.180000       12.0110           0
      4802 P14      16       ETHY     H21      HGA2     0.090000        1.0080           0
      4803 P14      16       ETHY     H23      HGA2     0.090000        1.0080           0
      4804 P14      17       ETHY     C1       CG321   -0.180000       12.0110           0
      4805 P14      17       ETHY     H11      HGA2     0.090000        1.0080           0
      4806 P14      17       ETHY     H13      HGA2     0.090000        1.0080           0
      4807 P14      17       ETHY     C2       CG321   -0.180000       12.0110           0
      4808 P14      17       ETHY     H21      HGA2     0.090000        1.0080           0
      4809 P14      17       ETHY     H23      HGA2     0.090000        1.0080           0
      4810 P14      18       ETHY     C1       CG321   -0.180000       12.0110           0
      4811 P14      18       ETHY     H11      HGA2     0.090000        1.0080           0
      4812 P14      18       ETHY     H13      HGA2     0.090000        1.0080           0
      4813 P14      18       ETHY     C2       CG321   -0.180000       12.0110           0
      4814 P14      18       ETHY     H21      HGA2     0.090000        1.0080           0
      4815 P14      18       ETHY     H23      HGA2     0.090000        1.0080           0
      4816 P14      19       ETHY     C1       CG321   -0.180000       12.0110           0
      4817 P14      19       ETHY     H11      HGA2     0.090000        1.0080           0
      4818 P14      19       ETHY     H13      HGA2     0.090000        1.0080           0
      4819 P14      19       ETHY     C2       CG321   -0.180000       12.0110           0
      4820 P14      19       ETHY     H21      HGA2     0.090000        1.0080           0
      4821 P14      19       ETHY     H23      HGA2     0.090000        1.0080           0
      4822 P14      20       ETHY     C1       CG321   -0.180000       12.0110           0
      4823 P14      20       ETHY     H11      HGA2     0.090000        1.0080           0
      4824 P14      20       ETHY     H13      HGA2     0.090000        1.0080           0
      4825 P14      20       ETHY     C2       CG321   -0.180000       12.0110           0
      4826 P14      20       ETHY     H21      HGA2     0.090000        1.0080           0
      4827 P14      20       ETHY     H23      HGA2     0.090000        1.0080           0
      4828 P14      21       ETHY     C1       CG321   -0.180000       12.0110           0
      4829 P14      21       ETHY     H11      HGA2     0.090000        1.0080           0
      4830 P14      21       ETHY     H13      HGA2     0.090000        1.0080           0
      4831 P14      21       ETHY     C2       CG321   -0.180000       12.0110           0
      4832 P14      21       ETHY     H21      HGA2     0.090000        1.0080           0
      4833 P14      21       ETHY     H23      HGA2     0.090000        1.0080           0
      4834 P14      22       ETHY     C1       CG321   -0.180000       12.0110           0
      4835 P14      22       ETHY     H11      HGA2     0.090000        1.0080           0
      4836 P14      22       ETHY     H13      HGA2     0.090000        1.0080           0
      4837 P14      22       ETHY     C2       CG321   -0.180000       12.0110           0
      4838 P14      22       ETHY     H21      HGA2     0.090000        1.0080           0
      4839 P14      22       ETHY     H23      HGA2     0.090000        1.0080           0
      4840 P14      23       ETHY     C1       CG321   -0.180000       12.0110           0
      4841 P14      23       ETHY     H11      HGA2     0.090000        1.0080           0
      4842 P14      23       ETHY     H13      HGA2     0.090000        1.0080           0
      4843 P14      23       ETHY     C2       CG321   -0.180000       12.0110           0
      4844 P14      23       ETHY     H21      HGA2     0.090000        1.0080           0
      4845 P14      23       ETHY     H23      HGA2     0.090000        1.0080           0
      4846 P14      24       ETHY     C1       CG321   -0.180000       12.0110           0
      4847 P14      24       ETHY     H11      HGA2     0.090000        1.0080           0
      4848 P14      24       ETHY     H13      HGA2     0.090000        1.0080           0
      4849 P14      24       ETHY     C2       CG321   -0.180000       12.0110           0
      4850 P14      24       ETHY     H21      HGA2     0.090000        1.0080           0
      4851 P14      24       ETHY     H23      HGA2     0.090000        1.0080           0
      4852 P14      25       ETHY     C1       CG321   -0.180000       12.0110           0
      4853 P14      25       ETHY     H11      HGA2     0.090000        1.0080           0
      4854 P14      25       ETHY     H13      HGA2     0.090000        1.0080           0
      4855 P14      25       ETHY     C2       CG321   -0.180000       12.0110           0
      4856 P14      25       ETHY     H21      HGA2     0.090000        1.0080           0
      4857 P14      25       ETHY     H23      HGA2     0.090000        1.0080           0
      4858 P14      26       ETHY     C1       CG321   -0.180000       12.0110           0
      4859 P14      26       ETHY     H11      HGA2     0.090000        1.0080           0
      4860 P14      26       ETHY     H13      HGA2     0.090000        1.0080           0
      4861 P14      26       ETHY     C2       CG321   -0.180000       12.0110           0
      4862 P14      26       ETHY     H21      HGA2     0.090000        1.0080           0
      4863 P14      26       ETHY     H23      HGA2     0.090000        1.0080           0
      4864 P14      27       ETHY     C1       CG321   -0.180000       12.0110           0
      4865 P14      27       ETHY     H11      HGA2     0.090000        1.0080           0
      4866 P14      27       ETHY     H13      HGA2     0.090000        1.0080           0
      4867 P14      27       ETHY     C2       CG321   -0.180000       12.0110           0
      4868 P14      27       ETHY     H21      HGA2     0.090000        1.0080           0
      4869 P14      27       ETHY     H23      HGA2     0.090000        1.0080           0
      4870 P14      28       ETHY     C1       CG321   -0.180000       12.0110           0
      4871 P14      28       ETHY     H11      HGA2     0.090000        1.0080           0
      4872 P14      28       ETHY     H13      HGA2     0.090000        1.0080           0
      4873 P14      28       ETHY     C2       CG321   -0.180000       12.0110           0
      4874 P14      28       ETHY     H21      HGA2     0.090000        1.0080           0
      4875 P14      28       ETHY     H23      HGA2     0.090000        1.0080           0
      4876 P14      29       ETHY     C1       CG321   -0.180000       12.0110           0
      4877 P14      29       ETHY     H11      HGA2     0.090000        1.0080           0
      4878 P14      29       ETHY     H13      HGA2     0.090000        1.0080           0
      4879 P14      29       ETHY     C2       CG321   -0.180000       12.0110           0
      4880 P14      29       ETHY     H21      HGA2     0.090000        1.0080           0
      4881 P14      29       ETHY     H23      HGA2     0.090000        1.0080           0
      4882 P14      30       ETHY     C1       CG321   -0.180000       12.0110           0
      4883 P14      30       ETHY     H11      HGA2     0.090000        1.0080           0
      4884 P14      30       ETHY     H13      HGA2     0.090000        1.0080           0
      4885 P14      30       ETHY     C2       CG321   -0.180000       12.0110           0
      4886 P14      30       ETHY     H21      HGA2     0.090000        1.0080           0
      4887 P14      30       ETHY     H23      HGA2     0.090000        1.0080           0
      4888 P14      31       ETHY     C1       CG321   -0.180000       12.0110           0
      4889 P14      31       ETHY     H11      HGA2     0.090000        1.0080           0
      4890 P14      31       ETHY     H13      HGA2     0.090000        1.0080           0
      4891 P14      31       ETHY     C2       CG321   -0.180000       12.0110           0
      4892 P14      31       ETHY     H21      HGA2     0.090000        1.0080           0
      4893 P14      31       ETHY     H23      HGA2     0.090000        1.0080           0
      4894 P14      32       ETHY     C1       CG321   -0.180000       12.0110           0
      4895 P14      32       ETHY     H11      HGA2     0.090000        1.0080           0
      4896 P14      32       ETHY     H13      HGA2     0.090000        1.0080           0
      4897 P14      32       ETHY     C2       CG321   -0.180000       12.0110           0
      4898 P14      32       ETHY     H21      HGA2     0.090000        1.0080           0
      4899 P14      32       ETHY     H23      HGA2     0.090000        1.0080           0
      4900 P14      33       ETHY     C1       CG321   -0.180000       12.0110           0
      4901 P14      33       ETHY     H11      HGA2     0.090000        1.0080           0
      4902 P14      33       ETHY     H13      HGA2     0.090000        1.0080           0
      4903 P14      33       ETHY     C2       CG321   -0.180000       12.0110           0
      4904 P14      33       ETHY     H21      HGA2     0.090000        1.0080           0
      4905 P14      33       ETHY     H23      HGA2     0.090000        1.0080           0
      4906 P14      34       ETHY     C1       CG321   -0.180000       12.0110           0
      4907 P14      34       ETHY     H11      HGA2     0.090000        1.0080           0
      4908 P14      34       ETHY     H13      HGA2     0.090000        1.0080           0
      4909 P14      34       ETHY     C2       CG321   -0.180000       12.0110           0
      4910 P14      34       ETHY     H21      HGA2     0.090000        1.0080           0
      4911 P14      34       ETHY     H23      HGA2     0.090000        1.0080           0
      4912 P14      35       ETHY     C1       CG321   -0.180000       12.0110           0
      4913 P14      35       ETHY     H11      HGA2     0.090000        1.0080           0
      4914 P14      35       ETHY     H13      HGA2     0.090000        1.0080           0
      4915 P14      35       ETHY     C2       CG321   -0.180000       12.0110           0
      4916 P14      35       ETHY     H21      HGA2     0.090000        1.0080           0
      4917 P14      35       ETHY     H23      HGA2     0.090000        1.0080           0
      4918 P14      36       ETHY     C1       CG321   -0.180000       12.0110           0
      4919 P14      36       ETHY     H11      HGA2     0.090000        1.0080           0
      4920 P14      36       ETHY     H13      HGA2     0.090000        1.0080           0
      4921 P14      36       ETHY     C2       CG321   -0.180000       12.0110           0
      4922 P14      36       ETHY     H21      HGA2     0.090000        1.0080           0
      4923 P14      36       ETHY     H23      HGA2     0.090000        1.0080           0
      4924 P14      37       ETHY     C1       CG321   -0.180000       12.0110           0
      4925 P14      37       ETHY     H11      HGA2     0.090000        1.0080           0
      4926 P14      37       ETHY     H13      HGA2     0.090000        1.0080           0
      4927 P14      37       ETHY     C2       CG321   -0.180000       12.0110           0
      4928 P14      37       ETHY     H21      HGA2     0.090000        1.0080           0
      4929 P14      37       ETHY     H23      HGA2     0.090000        1.0080           0
      4930 P14      38       ETHY     C1       CG321   -0.180000       12.0110           0
      4931 P14      38       ETHY     H11      HGA2     0.090000        1.0080           0
      4932 P14      38       ETHY     H13      HGA2     0.090000        1.0080           0
      4933 P14      38       ETHY     C2       CG321   -0.180000       12.0110           0
      4934 P14      38       ETHY     H21      HGA2     0.090000        1.0080           0
      4935 P14      38       ETHY     H23      HGA2     0.090000        1.0080           0
      4936 P14      39       ETHY     C1       CG321   -0.180000       12.0110           0
      4937 P14      39       ETHY     H11      HGA2     0.090000        1.0080           0
      4938 P14      39       ETHY     H13      HGA2     0.090000        1.0080           0
      4939 P14      39       ETHY     C2       CG321   -0.180000       12.0110           0
      4940 P14      39       ETHY     H21      HGA2     0.090000        1.0080           0
      4941 P14      39       ETHY     H23      HGA2     0.090000        1.0080           0
      4942 P14      40       ETHY     C1       CG321   -0.180000       12.0110           0
      4943 P14      40       ETHY     H11      HGA2     0.090000        1.0080           0
      4944 P14      40       ETHY     H13      HGA2     0.090000        1.0080           0
      4945 P14      40       ETHY     C2       CG321   -0.180000       12.0110           0
      4946 P14      40       ETHY     H21      HGA2     0.090000        1.0080           0
      4947 P14      40       ETHY     H23      HGA2     0.090000        1.0080           0
      4948 P14      41       ETHY     C1       CG321   -0.180000       12.0110           0
      4949 P14      41       ETHY     H11      HGA2     0.090000        1.0080           0
      4950 P14      41       ETHY     H13      HGA2     0.090000        1.0080           0
      4951 P14      41       ETHY     C2       CG321   -0.180000       12.0110           0
      4952 P14      41       ETHY     H21      HGA2     0.090000        1.0080           0
      4953 P14      41       ETHY     H23      HGA2     0.090000        1.0080           0
      4954 P14      42       ETHY     C1       CG321   -0.180000       12.0110           0
      4955 P14      42       ETHY     H11      HGA2     0.090000        1.0080           0
      4956 P14      42       ETHY     H13      HGA2     0.090000        1.0080           0
      4957 P14      42       ETHY     C2       CG321   -0.180000       12.0110           0
      4958 P14      42       ETHY     H21      HGA2     0.090000        1.0080           0
      4959 P14      42       ETHY     H23      HGA2     0.090000        1.0080           0
      4960 P14      43       ETHY     C1       CG321   -0.180000       12.0110           0
      4961 P14      43       ETHY     H11      HGA2     0.090000        1.0080           0
      4962 P14      43       ETHY     H13      HGA2     0.090000        1.0080           0
      4963 P14      43       ETHY     C2       CG321   -0.180000       12.0110           0
      4964 P14      43       ETHY     H21      HGA2     0.090000        1.0080           0
      4965 P14      43       ETHY     H23      HGA2     0.090000        1.0080           0
      4966 P14      44       ETHY     C1       CG321   -0.180000       12.0110           0
      4967 P14      44       ETHY     H11      HGA2     0.090000        1.0080           0
      4968 P14      44       ETHY     H13      HGA2     0.090000        1.0080           0
      4969 P14      44       ETHY     C2       CG321   -0.180000       12.0110           0
      4970 P14      44       ETHY     H21      HGA2     0.090000        1.0080           0
      4971 P14      44       ETHY     H23      HGA2     0.090000        1.0080           0
      4972 P14      45       ETHY     C1       CG321   -0.180000       12.0110           0
      4973 P14      45       ETHY     H11      HGA2     0.090000        1.0080           0
      4974 P14      45       ETHY     H13      HGA2     0.090000        1.0080           0
      4975 P14      45       ETHY     C2       CG321   -0.180000       12.0110           0
      4976 P14      45       ETHY     H21      HGA2     0.090000        1.0080           0
      4977 P14      45       ETHY     H23      HGA2     0.090000        1.0080           0
      4978 P14      46       ETHY     C1       CG321   -0.180000       12.0110           0
      4979 P14      46       ETHY     H11      HGA2     0.090000        1.0080           0
      4980 P14      46       ETHY     H13      HGA2     0.090000        1.0080           0
      4981 P14      46       ETHY     C2       CG321   -0.180000       12.0110           0
      4982 P14      46       ETHY     H21      HGA2     0.090000        1.0080           0
      4983 P14      46       ETHY     H23      HGA2     0.090000        1.0080           0
      4984 P14      47       ETHY     C1       CG321   -0.180000       12.0110           0
      4985 P14      47       ETHY     H11      HGA2     0.090000        1.0080           0
      4986 P14      47       ETHY     H13      HGA2     0.090000        1.0080           0
      4987 P14      47       ETHY     C2       CG321   -0.180000       12.0110           0
      4988 P14      47       ETHY     H21      HGA2     0.090000        1.0080           0
      4989 P14      47       ETHY     H23      HGA2     0.090000        1.0080           0
      4990 P14      48       ETHY     C1       CG321   -0.180000       12.0110           0
      4991 P14      48       ETHY     H11      HGA2     0.090000        1.0080           0
      4992 P14      48       ETHY     H13      HGA2     0.090000        1.0080           0
      4993 P14      48       ETHY     C2       CG321   -0.180000       12.0110           0
      4994 P14      48       ETHY     H21      HGA2     0.090000        1.0080           0
      4995 P14      48       ETHY     H23      HGA2     0.090000        1.0080           0
      4996 P14      49       ETHY     C1       CG321   -0.180000       12.0110           0
      4997 P14      49       ETHY     H11      HGA2     0.090000        1.0080           0
      4998 P14      49       ETHY     H13      HGA2     0.090000        1.0080           0
      4999 P14      49       ETHY     C2       CG321   -0.180000       12.0110           0
      5000 P14      49       ETHY     H21      HGA2     0.090000        1.0080           0
      5001 P14      49       ETHY     H23      HGA2     0.090000        1.0080           0
      5002 P14      50       ETHY     C1       CG321   -0.180000       12.0110           0
      5003 P14      50       ETHY     H11      HGA2     0.090000        1.0080           0
      5004 P14      50       ETHY     H13      HGA2     0.090000        1.0080           0
      5005 P14      50       ETHY     C2       CG321   -0.180000       12.0110           0
      5006 P14      50       ETHY     H21      HGA2     0.090000        1.0080           0
      5007 P14      50       ETHY     H23      HGA2     0.090000        1.0080           0
      5008 P14      51       ETHY     C1       CG321   -0.180000       12.0110           0
      5009 P14      51       ETHY     H11      HGA2     0.090000        1.0080           0
      5010 P14      51       ETHY     H13      HGA2     0.090000        1.0080           0
      5011 P14      51       ETHY     C2       CG321   -0.180000       12.0110           0
      5012 P14      51       ETHY     H21      HGA2     0.090000        1.0080           0
      5013 P14      51       ETHY     H23      HGA2     0.090000        1.0080           0
      5014 P14      52       ETHY     C1       CG321   -0.180000       12.0110           0
      5015 P14      52       ETHY     H11      HGA2     0.090000        1.0080           0
      5016 P14      52       ETHY     H13      HGA2     0.090000        1.0080           0
      5017 P14      52       ETHY     C2       CG321   -0.180000       12.0110           0
      5018 P14      52       ETHY     H21      HGA2     0.090000        1.0080           0
      5019 P14      52       ETHY     H23      HGA2     0.090000        1.0080           0
      5020 P14      53       ETHY     C1       CG321   -0.180000       12.0110           0
      5021 P14      53       ETHY     H11      HGA2     0.090000        1.0080           0
      5022 P14      53       ETHY     H13      HGA2     0.090000        1.0080           0
      5023 P14      53       ETHY     C2       CG321   -0.180000       12.0110           0
      5024 P14      53       ETHY     H21      HGA2     0.090000        1.0080           0
      5025 P14      53       ETHY     H23      HGA2     0.090000        1.0080           0
      5026 P14      54       ETHY     C1       CG321   -0.180000       12.0110           0
      5027 P14      54       ETHY     H11      HGA2     0.090000        1.0080           0
      5028 P14      54       ETHY     H13      HGA2     0.090000        1.0080           0
      5029 P14      54       ETHY     C2       CG321   -0.180000       12.0110           0
      5030 P14      54       ETHY     H21      HGA2     0.090000        1.0080           0
      5031 P14      54       ETHY     H23      HGA2     0.090000        1.0080           0
      5032 P14      55       ETHY     C1       CG321   -0.180000       12.0110           0
      5033 P14      55       ETHY     H11      HGA2     0.090000        1.0080           0
      5034 P14      55       ETHY     H13      HGA2     0.090000        1.0080           0
      5035 P14      55       ETHY     C2       CG321   -0.180000       12.0110           0
      5036 P14      55       ETHY     H21      HGA2     0.090000        1.0080           0
      5037 P14      55       ETHY     H23      HGA2     0.090000        1.0080           0
      5038 P14      56       ETHY     C1       CG321   -0.180000       12.0110           0
      5039 P14      56       ETHY     H11      HGA2     0.090000        1.0080           0
      5040 P14      56       ETHY     H13      HGA2     0.090000        1.0080           0
      5041 P14      56       ETHY     C2       CG321   -0.180000       12.0110           0
      5042 P14      56       ETHY     H21      HGA2     0.090000        1.0080           0
      5043 P14      56       ETHY     H23      HGA2     0.090000        1.0080           0
      5044 P14      57       ETHY     C1       CG321   -0.180000       12.0110           0
      5045 P14      57       ETHY     H11      HGA2     0.090000        1.0080           0
      5046 P14      57       ETHY     H13      HGA2     0.090000        1.0080           0
      5047 P14      57       ETHY     C2       CG321   -0.180000       12.0110           0
      5048 P14      57       ETHY     H21      HGA2     0.090000        1.0080           0
      5049 P14      57       ETHY     H23      HGA2     0.090000        1.0080           0
      5050 P14      58       ETHY     C1       CG321   -0.180000       12.0110           0
      5051 P14      58       ETHY     H11      HGA2     0.090000        1.0080           0
      5052 P14      58       ETHY     H13      HGA2     0.090000        1.0080           0
      5053 P14      58       ETHY     C2       CG321   -0.180000       12.0110           0
      5054 P14      58       ETHY     H21      HGA2     0.090000        1.0080           0
      5055 P14      58       ETHY     H23      HGA2     0.090000        1.0080           0
      5056 P14      59       ETHY     C1       CG321   -0.180000       12.0110           0
      5057 P14      59       ETHY     H11      HGA2     0.090000        1.0080           0
      5058 P14      59       ETHY     H13      HGA2     0.090000        1.0080           0
      5059 P14      59       ETHY     C2       CG321   -0.180000       12.0110           0
      5060 P14      59       ETHY     H21      HGA2     0.090000        1.0080           0
      5061 P14      59       ETHY     H23      HGA2     0.090000        1.0080           0
      5062 P14      60       ETHY     C1       CG321   -0.180000       12.0110           0
      5063 P14      60       ETHY     H11      HGA2     0.090000        1.0080           0
      5064 P14      60       ETHY     H13      HGA2     0.090000        1.0080           0
      5065 P14      60       ETHY     C2       CG331   -0.270000       12.0110           0
      5066 P14      60       ETHY     H22      HGA3     0.090000        1.0080           0
      5067 P14      60       ETHY     H21      HGA3     0.090000        1.0080           0
      5068 P14      60       ETHY     H23      HGA3     0.090000        1.0080           0
      5069 P15      1        ETHY     C1       CG331   -0.270000       12.0110           0
      5070 P15      1        ETHY     H11      HGA3     0.090000        1.0080           0
      5071 P15      1        ETHY     H12      HGA3     0.090000        1.0080           0
      5072 P15      1        ETHY     H13      HGA3     0.090000        1.0080           0
      5073 P15      1        ETHY     C2       CG321   -0.180000       12.0110           0
      5074 P15      1        ETHY     H21      HGA2     0.090000        1.0080           0
      5075 P15      1        ETHY     H23      HGA2     0.090000        1.0080           0
      5076 P15      2        ETHY     C1       CG321   -0.180000       12.0110           0
      5077 P15      2        ETHY     H11      HGA2     0.090000        1.0080           0
      5078 P15      2        ETHY     H13      HGA2     0.090000        1.0080           0
      5079 P15      2        ETHY     C2       CG321   -0.180000       12.0110           0
      5080 P15      2        ETHY     H21      HGA2     0.090000        1.0080           0
      5081 P15      2        ETHY     H23      HGA2     0.090000        1.0080           0
      5082 P15      3        ETHY     C1       CG321   -0.180000       12.0110           0
      5083 P15      3        ETHY     H11      HGA2     0.090000        1.0080           0
      5084 P15      3        ETHY     H13      HGA2     0.090000        1.0080           0
      5085 P15      3        ETHY     C2       CG321   -0.180000       12.0110           0
      5086 P15      3        ETHY     H21      HGA2     0.090000        1.0080           0
      5087 P15      3        ETHY     H23      HGA2     0.090000        1.0080           0
      5088 P15      4        ETHY     C1       CG321   -0.180000       12.0110           0
      5089 P15      4        ETHY     H11      HGA2     0.090000        1.0080           0
      5090 P15      4        ETHY     H13      HGA2     0.090000        1.0080           0
      5091 P15      4        ETHY     C2       CG321   -0.180000       12.0110           0
      5092 P15      4        ETHY     H21      HGA2     0.090000        1.0080           0
      5093 P15      4        ETHY     H23      HGA2     0.090000        1.0080           0
      5094 P15      5        ETHY     C1       CG321   -0.180000       12.0110           0
      5095 P15      5        ETHY     H11      HGA2     0.090000        1.0080           0
      5096 P15      5        ETHY     H13      HGA2     0.090000        1.0080           0
      5097 P15      5        ETHY     C2       CG321   -0.180000       12.0110           0
      5098 P15      5        ETHY     H21      HGA2     0.090000        1.0080           0
      5099 P15      5        ETHY     H23      HGA2     0.090000        1.0080           0
      5100 P15      6        ETHY     C1       CG321   -0.180000       12.0110           0
      5101 P15      6        ETHY     H11      HGA2     0.090000        1.0080           0
      5102 P15      6        ETHY     H13      HGA2     0.090000        1.0080           0
      5103 P15      6        ETHY     C2       CG321   -0.180000       12.0110           0
      5104 P15      6        ETHY     H21      HGA2     0.090000        1.0080           0
      5105 P15      6        ETHY     H23      HGA2     0.090000        1.0080           0
      5106 P15      7        ETHY     C1       CG321   -0.180000       12.0110           0
      5107 P15      7        ETHY     H11      HGA2     0.090000        1.0080           0
      5108 P15      7        ETHY     H13      HGA2     0.090000        1.0080           0
      5109 P15      7        ETHY     C2       CG321   -0.180000       12.0110           0
      5110 P15      7        ETHY     H21      HGA2     0.090000        1.0080           0
      5111 P15      7        ETHY     H23      HGA2     0.090000        1.0080           0
      5112 P15      8        ETHY     C1       CG321   -0.180000       12.0110           0
      5113 P15      8        ETHY     H11      HGA2     0.090000        1.0080           0
      5114 P15      8        ETHY     H13      HGA2     0.090000        1.0080           0
      5115 P15      8        ETHY     C2       CG321   -0.180000       12.0110           0
      5116 P15      8        ETHY     H21      HGA2     0.090000        1.0080           0
      5117 P15      8        ETHY     H23      HGA2     0.090000        1.0080           0
      5118 P15      9        ETHY     C1       CG321   -0.180000       12.0110           0
      5119 P15      9        ETHY     H11      HGA2     0.090000        1.0080           0
      5120 P15      9        ETHY     H13      HGA2     0.090000        1.0080           0
      5121 P15      9        ETHY     C2       CG321   -0.180000       12.0110           0
      5122 P15      9        ETHY     H21      HGA2     0.090000        1.0080           0
      5123 P15      9        ETHY     H23      HGA2     0.090000        1.0080           0
      5124 P15      10       ETHY     C1       CG321   -0.180000       12.0110           0
      5125 P15      10       ETHY     H11      HGA2     0.090000        1.0080           0
      5126 P15      10       ETHY     H13      HGA2     0.090000        1.0080           0
      5127 P15      10       ETHY     C2       CG321   -0.180000       12.0110           0
      5128 P15      10       ETHY     H21      HGA2     0.090000        1.0080           0
      5129 P15      10       ETHY     H23      HGA2     0.090000        1.0080           0
      5130 P15      11       ETHY     C1       CG321   -0.180000       12.0110           0
      5131 P15      11       ETHY     H11      HGA2     0.090000        1.0080           0
      5132 P15      11       ETHY     H13      HGA2     0.090000        1.0080           0
      5133 P15      11       ETHY     C2       CG321   -0.180000       12.0110           0
      5134 P15      11       ETHY     H21      HGA2     0.090000        1.0080           0
      5135 P15      11       ETHY     H23      HGA2     0.090000        1.0080           0
      5136 P15      12       ETHY     C1       CG321   -0.180000       12.0110           0
      5137 P15      12       ETHY     H11      HGA2     0.090000        1.0080           0
      5138 P15      12       ETHY     H13      HGA2     0.090000        1.0080           0
      5139 P15      12       ETHY     C2       CG321   -0.180000       12.0110           0
      5140 P15      12       ETHY     H21      HGA2     0.090000        1.0080           0
      5141 P15      12       ETHY     H23      HGA2     0.090000        1.0080           0
      5142 P15      13       ETHY     C1       CG321   -0.180000       12.0110           0
      5143 P15      13       ETHY     H11      HGA2     0.090000        1.0080           0
      5144 P15      13       ETHY     H13      HGA2     0.090000        1.0080           0
      5145 P15      13       ETHY     C2       CG321   -0.180000       12.0110           0
      5146 P15      13       ETHY     H21      HGA2     0.090000        1.0080           0
      5147 P15      13       ETHY     H23      HGA2     0.090000        1.0080           0
      5148 P15      14       ETHY     C1       CG321   -0.180000       12.0110           0
      5149 P15      14       ETHY     H11      HGA2     0.090000        1.0080           0
      5150 P15      14       ETHY     H13      HGA2     0.090000        1.0080           0
      5151 P15      14       ETHY     C2       CG321   -0.180000       12.0110           0
      5152 P15      14       ETHY     H21      HGA2     0.090000        1.0080           0
      5153 P15      14       ETHY     H23      HGA2     0.090000        1.0080           0
      5154 P15      15       ETHY     C1       CG321   -0.180000       12.0110           0
      5155 P15      15       ETHY     H11      HGA2     0.090000        1.0080           0
      5156 P15      15       ETHY     H13      HGA2     0.090000        1.0080           0
      5157 P15      15       ETHY     C2       CG321   -0.180000       12.0110           0
      5158 P15      15       ETHY     H21      HGA2     0.090000        1.0080           0
      5159 P15      15       ETHY     H23      HGA2     0.090000        1.0080           0
      5160 P15      16       ETHY     C1       CG321   -0.180000       12.0110           0
      5161 P15      16       ETHY     H11      HGA2     0.090000        1.0080           0
      5162 P15      16       ETHY     H13      HGA2     0.090000        1.0080           0
      5163 P15      16       ETHY     C2       CG321   -0.180000       12.0110           0
      5164 P15      16       ETHY     H21      HGA2     0.090000        1.0080           0
      5165 P15      16       ETHY     H23      HGA2     0.090000        1.0080           0
      5166 P15      17       ETHY     C1       CG321   -0.180000       12.0110           0
      5167 P15      17       ETHY     H11      HGA2     0.090000        1.0080           0
      5168 P15      17       ETHY     H13      HGA2     0.090000        1.0080           0
      5169 P15      17       ETHY     C2       CG321   -0.180000       12.0110           0
      5170 P15      17       ETHY     H21      HGA2     0.090000        1.0080           0
      5171 P15      17       ETHY     H23      HGA2     0.090000        1.0080           0
      5172 P15      18       ETHY     C1       CG321   -0.180000       12.0110           0
      5173 P15      18       ETHY     H11      HGA2     0.090000        1.0080           0
      5174 P15      18       ETHY     H13      HGA2     0.090000        1.0080           0
      5175 P15      18       ETHY     C2       CG321   -0.180000       12.0110           0
      5176 P15      18       ETHY     H21      HGA2     0.090000        1.0080           0
      5177 P15      18       ETHY     H23      HGA2     0.090000        1.0080           0
      5178 P15      19       ETHY     C1       CG321   -0.180000       12.0110           0
      5179 P15      19       ETHY     H11      HGA2     0.090000        1.0080           0
      5180 P15      19       ETHY     H13      HGA2     0.090000        1.0080           0
      5181 P15      19       ETHY     C2       CG321   -0.180000       12.0110           0
      5182 P15      19       ETHY     H21      HGA2     0.090000        1.0080           0
      5183 P15      19       ETHY     H23      HGA2     0.090000        1.0080           0
      5184 P15      20       ETHY     C1       CG321   -0.180000       12.0110           0
      5185 P15      20       ETHY     H11      HGA2     0.090000        1.0080           0
      5186 P15      20       ETHY     H13      HGA2     0.090000        1.0080           0
      5187 P15      20       ETHY     C2       CG321   -0.180000       12.0110           0
      5188 P15      20       ETHY     H21      HGA2     0.090000        1.0080           0
      5189 P15      20       ETHY     H23      HGA2     0.090000        1.0080           0
      5190 P15      21       ETHY     C1       CG321   -0.180000       12.0110           0
      5191 P15      21       ETHY     H11      HGA2     0.090000        1.0080           0
      5192 P15      21       ETHY     H13      HGA2     0.090000        1.0080           0
      5193 P15      21       ETHY     C2       CG321   -0.180000       12.0110           0
      5194 P15      21       ETHY     H21      HGA2     0.090000        1.0080           0
      5195 P15      21       ETHY     H23      HGA2     0.090000        1.0080           0
      5196 P15      22       ETHY     C1       CG321   -0.180000       12.0110           0
      5197 P15      22       ETHY     H11      HGA2     0.090000        1.0080           0
      5198 P15      22       ETHY     H13      HGA2     0.090000        1.0080           0
      5199 P15      22       ETHY     C2       CG321   -0.180000       12.0110           0
      5200 P15      22       ETHY     H21      HGA2     0.090000        1.0080           0
      5201 P15      22       ETHY     H23      HGA2     0.090000        1.0080           0
      5202 P15      23       ETHY     C1       CG321   -0.180000       12.0110           0
      5203 P15      23       ETHY     H11      HGA2     0.090000        1.0080           0
      5204 P15      23       ETHY     H13      HGA2     0.090000        1.0080           0
      5205 P15      23       ETHY     C2       CG321   -0.180000       12.0110           0
      5206 P15      23       ETHY     H21      HGA2     0.090000        1.0080           0
      5207 P15      23       ETHY     H23      HGA2     0.090000        1.0080           0
      5208 P15      24       ETHY     C1       CG321   -0.180000       12.0110           0
      5209 P15      24       ETHY     H11      HGA2     0.090000        1.0080           0
      5210 P15      24       ETHY     H13      HGA2     0.090000        1.0080           0
      5211 P15      24       ETHY     C2       CG321   -0.180000       12.0110           0
      5212 P15      24       ETHY     H21      HGA2     0.090000        1.0080           0
      5213 P15      24       ETHY     H23      HGA2     0.090000        1.0080           0
      5214 P15      25       ETHY     C1       CG321   -0.180000       12.0110           0
      5215 P15      25       ETHY     H11      HGA2     0.090000        1.0080           0
      5216 P15      25       ETHY     H13      HGA2     0.090000        1.0080           0
      5217 P15      25       ETHY     C2       CG321   -0.180000       12.0110           0
      5218 P15      25       ETHY     H21      HGA2     0.090000        1.0080           0
      5219 P15      25       ETHY     H23      HGA2     0.090000        1.0080           0
      5220 P15      26       ETHY     C1       CG321   -0.180000       12.0110           0
      5221 P15      26       ETHY     H11      HGA2     0.090000        1.0080           0
      5222 P15      26       ETHY     H13      HGA2     0.090000        1.0080           0
      5223 P15      26       ETHY     C2       CG321   -0.180000       12.0110           0
      5224 P15      26       ETHY     H21      HGA2     0.090000        1.0080           0
      5225 P15      26       ETHY     H23      HGA2     0.090000        1.0080           0
      5226 P15      27       ETHY     C1       CG321   -0.180000       12.0110           0
      5227 P15      27       ETHY     H11      HGA2     0.090000        1.0080           0
      5228 P15      27       ETHY     H13      HGA2     0.090000        1.0080           0
      5229 P15      27       ETHY     C2       CG321   -0.180000       12.0110           0
      5230 P15      27       ETHY     H21      HGA2     0.090000        1.0080           0
      5231 P15      27       ETHY     H23      HGA2     0.090000        1.0080           0
      5232 P15      28       ETHY     C1       CG321   -0.180000       12.0110           0
      5233 P15      28       ETHY     H11      HGA2     0.090000        1.0080           0
      5234 P15      28       ETHY     H13      HGA2     0.090000        1.0080           0
      5235 P15      28       ETHY     C2       CG321   -0.180000       12.0110           0
      5236 P15      28       ETHY     H21      HGA2     0.090000        1.0080           0
      5237 P15      28       ETHY     H23      HGA2     0.090000        1.0080           0
      5238 P15      29       ETHY     C1       CG321   -0.180000       12.0110           0
      5239 P15      29       ETHY     H11      HGA2     0.090000        1.0080           0
      5240 P15      29       ETHY     H13      HGA2     0.090000        1.0080           0
      5241 P15      29       ETHY     C2       CG321   -0.180000       12.0110           0
      5242 P15      29       ETHY     H21      HGA2     0.090000        1.0080           0
      5243 P15      29       ETHY     H23      HGA2     0.090000        1.0080           0
      5244 P15      30       ETHY     C1       CG321   -0.180000       12.0110           0
      5245 P15      30       ETHY     H11      HGA2     0.090000        1.0080           0
      5246 P15      30       ETHY     H13      HGA2     0.090000        1.0080           0
      5247 P15      30       ETHY     C2       CG321   -0.180000       12.0110           0
      5248 P15      30       ETHY     H21      HGA2     0.090000        1.0080           0
      5249 P15      30       ETHY     H23      HGA2     0.090000        1.0080           0
      5250 P15      31       ETHY     C1       CG321   -0.180000       12.0110           0
      5251 P15      31       ETHY     H11      HGA2     0.090000        1.0080           0
      5252 P15      31       ETHY     H13      HGA2     0.090000        1.0080           0
      5253 P15      31       ETHY     C2       CG321   -0.180000       12.0110           0
      5254 P15      31       ETHY     H21      HGA2     0.090000        1.0080           0
      5255 P15      31       ETHY     H23      HGA2     0.090000        1.0080           0
      5256 P15      32       ETHY     C1       CG321   -0.180000       12.0110           0
      5257 P15      32       ETHY     H11      HGA2     0.090000        1.0080           0
      5258 P15      32       ETHY     H13      HGA2     0.090000        1.0080           0
      5259 P15      32       ETHY     C2       CG321   -0.180000       12.0110           0
      5260 P15      32       ETHY     H21      HGA2     0.090000        1.0080           0
      5261 P15      32       ETHY     H23      HGA2     0.090000        1.0080           0
      5262 P15      33       ETHY     C1       CG321   -0.180000       12.0110           0
      5263 P15      33       ETHY     H11      HGA2     0.090000        1.0080           0
      5264 P15      33       ETHY     H13      HGA2     0.090000        1.0080           0
      5265 P15      33       ETHY     C2       CG321   -0.180000       12.0110           0
      5266 P15      33       ETHY     H21      HGA2     0.090000        1.0080           0
      5267 P15      33       ETHY     H23      HGA2     0.090000        1.0080           0
      5268 P15      34       ETHY     C1       CG321   -0.180000       12.0110           0
      5269 P15      34       ETHY     H11      HGA2     0.090000        1.0080           0
      5270 P15      34       ETHY     H13      HGA2     0.090000        1.0080           0
      5271 P15      34       ETHY     C2       CG321   -0.180000       12.0110           0
      5272 P15      34       ETHY     H21      HGA2     0.090000        1.0080           0
      5273 P15      34       ETHY     H23      HGA2     0.090000        1.0080           0
      5274 P15      35       ETHY     C1       CG321   -0.180000       12.0110           0
      5275 P15      35       ETHY     H11      HGA2     0.090000        1.0080           0
      5276 P15      35       ETHY     H13      HGA2     0.090000        1.0080           0
      5277 P15      35       ETHY     C2       CG321   -0.180000       12.0110           0
      5278 P15      35       ETHY     H21      HGA2     0.090000        1.0080           0
      5279 P15      35       ETHY     H23      HGA2     0.090000        1.0080           0
      5280 P15      36       ETHY     C1       CG321   -0.180000       12.0110           0
      5281 P15      36       ETHY     H11      HGA2     0.090000        1.0080           0
      5282 P15      36       ETHY     H13      HGA2     0.090000        1.0080           0
      5283 P15      36       ETHY     C2       CG321   -0.180000       12.0110           0
      5284 P15      36       ETHY     H21      HGA2     0.090000        1.0080           0
      5285 P15      36       ETHY     H23      HGA2     0.090000        1.0080           0
      5286 P15      37       ETHY     C1       CG321   -0.180000       12.0110           0
      5287 P15      37       ETHY     H11      HGA2     0.090000        1.0080           0
      5288 P15      37       ETHY     H13      HGA2     0.090000        1.0080           0
      5289 P15      37       ETHY     C2       CG321   -0.180000       12.0110           0
      5290 P15      37       ETHY     H21      HGA2     0.090000        1.0080           0
      5291 P15      37       ETHY     H23      HGA2     0.090000        1.0080           0
      5292 P15      38       ETHY     C1       CG321   -0.180000       12.0110           0
      5293 P15      38       ETHY     H11      HGA2     0.090000        1.0080           0
      5294 P15      38       ETHY     H13      HGA2     0.090000        1.0080           0
      5295 P15      38       ETHY     C2       CG321   -0.180000       12.0110           0
      5296 P15      38       ETHY     H21      HGA2     0.090000        1.0080           0
      5297 P15      38       ETHY     H23      HGA2     0.090000        1.0080           0
      5298 P15      39       ETHY     C1       CG321   -0.180000       12.0110           0
      5299 P15      39       ETHY     H11      HGA2     0.090000        1.0080           0
      5300 P15      39       ETHY     H13      HGA2     0.090000        1.0080           0
      5301 P15      39       ETHY     C2       CG321   -0.180000       12.0110           0
      5302 P15      39       ETHY     H21      HGA2     0.090000        1.0080           0
      5303 P15      39       ETHY     H23      HGA2     0.090000        1.0080           0
      5304 P15      40       ETHY     C1       CG321   -0.180000       12.0110           0
      5305 P15      40       ETHY     H11      HGA2     0.090000        1.0080           0
      5306 P15      40       ETHY     H13      HGA2     0.090000        1.0080           0
      5307 P15      40       ETHY     C2       CG321   -0.180000       12.0110           0
      5308 P15      40       ETHY     H21      HGA2     0.090000        1.0080           0
      5309 P15      40       ETHY     H23      HGA2     0.090000        1.0080           0
      5310 P15      41       ETHY     C1       CG321   -0.180000       12.0110           0
      5311 P15      41       ETHY     H11      HGA2     0.090000        1.0080           0
      5312 P15      41       ETHY     H13      HGA2     0.090000        1.0080           0
      5313 P15      41       ETHY     C2       CG321   -0.180000       12.0110           0
      5314 P15      41       ETHY     H21      HGA2     0.090000        1.0080           0
      5315 P15      41       ETHY     H23      HGA2     0.090000        1.0080           0
      5316 P15      42       ETHY     C1       CG321   -0.180000       12.0110           0
      5317 P15      42       ETHY     H11      HGA2     0.090000        1.0080           0
      5318 P15      42       ETHY     H13      HGA2     0.090000        1.0080           0
      5319 P15      42       ETHY     C2       CG321   -0.180000       12.0110           0
      5320 P15      42       ETHY     H21      HGA2     0.090000        1.0080           0
      5321 P15      42       ETHY     H23      HGA2     0.090000        1.0080           0
      5322 P15      43       ETHY     C1       CG321   -0.180000       12.0110           0
      5323 P15      43       ETHY     H11      HGA2     0.090000        1.0080           0
      5324 P15      43       ETHY     H13      HGA2     0.090000        1.0080           0
      5325 P15      43       ETHY     C2       CG321   -0.180000       12.0110           0
      5326 P15      43       ETHY     H21      HGA2     0.090000        1.0080           0
      5327 P15      43       ETHY     H23      HGA2     0.090000        1.0080           0
      5328 P15      44       ETHY     C1       CG321   -0.180000       12.0110           0
      5329 P15      44       ETHY     H11      HGA2     0.090000        1.0080           0
      5330 P15      44       ETHY     H13      HGA2     0.090000        1.0080           0
      5331 P15      44       ETHY     C2       CG321   -0.180000       12.0110           0
      5332 P15      44       ETHY     H21      HGA2     0.090000        1.0080           0
      5333 P15      44       ETHY     H23      HGA2     0.090000        1.0080           0
      5334 P15      45       ETHY     C1       CG321   -0.180000       12.0110           0
      5335 P15      45       ETHY     H11      HGA2     0.090000        1.0080           0
      5336 P15      45       ETHY     H13      HGA2     0.090000        1.0080           0
      5337 P15      45       ETHY     C2       CG321   -0.180000       12.0110           0
      5338 P15      45       ETHY     H21      HGA2     0.090000        1.0080           0
      5339 P15      45       ETHY     H23      HGA2     0.090000        1.0080           0
      5340 P15      46       ETHY     C1       CG321   -0.180000       12.0110           0
      5341 P15      46       ETHY     H11      HGA2     0.090000        1.0080           0
      5342 P15      46       ETHY     H13      HGA2     0.090000        1.0080           0
      5343 P15      46       ETHY     C2       CG321   -0.180000       12.0110           0
      5344 P15      46       ETHY     H21      HGA2     0.090000        1.0080           0
      5345 P15      46       ETHY     H23      HGA2     0.090000        1.0080           0
      5346 P15      47       ETHY     C1       CG321   -0.180000       12.0110           0
      5347 P15      47       ETHY     H11      HGA2     0.090000        1.0080           0
      5348 P15      47       ETHY     H13      HGA2     0.090000        1.0080           0
      5349 P15      47       ETHY     C2       CG321   -0.180000       12.0110           0
      5350 P15      47       ETHY     H21      HGA2     0.090000        1.0080           0
      5351 P15      47       ETHY     H23      HGA2     0.090000        1.0080           0
      5352 P15      48       ETHY     C1       CG321   -0.180000       12.0110           0
      5353 P15      48       ETHY     H11      HGA2     0.090000        1.0080           0
      5354 P15      48       ETHY     H13      HGA2     0.090000        1.0080           0
      5355 P15      48       ETHY     C2       CG321   -0.180000       12.0110           0
      5356 P15      48       ETHY     H21      HGA2     0.090000        1.0080           0
      5357 P15      48       ETHY     H23      HGA2     0.090000        1.0080           0
      5358 P15      49       ETHY     C1       CG321   -0.180000       12.0110           0
      5359 P15      49       ETHY     H11      HGA2     0.090000        1.0080           0
      5360 P15      49       ETHY     H13      HGA2     0.090000        1.0080           0
      5361 P15      49       ETHY     C2       CG321   -0.180000       12.0110           0
      5362 P15      49       ETHY     H21      HGA2     0.090000        1.0080           0
      5363 P15      49       ETHY     H23      HGA2     0.090000        1.0080           0
      5364 P15      50       ETHY     C1       CG321   -0.180000       12.0110           0
      5365 P15      50       ETHY     H11      HGA2     0.090000        1.0080           0
      5366 P15      50       ETHY     H13      HGA2     0.090000        1.0080           0
      5367 P15      50       ETHY     C2       CG321   -0.180000       12.0110           0
      5368 P15      50       ETHY     H21      HGA2     0.090000        1.0080           0
      5369 P15      50       ETHY     H23      HGA2     0.090000        1.0080           0
      5370 P15      51       ETHY     C1       CG321   -0.180000       12.0110           0
      5371 P15      51       ETHY     H11      HGA2     0.090000        1.0080           0
      5372 P15      51       ETHY     H13      HGA2     0.090000        1.0080           0
      5373 P15      51       ETHY     C2       CG321   -0.180000       12.0110           0
      5374 P15      51       ETHY     H21      HGA2     0.090000        1.0080           0
      5375 P15      51       ETHY     H23      HGA2     0.090000        1.0080           0
      5376 P15      52       ETHY     C1       CG321   -0.180000       12.0110           0
      5377 P15      52       ETHY     H11      HGA2     0.090000        1.0080           0
      5378 P15      52       ETHY     H13      HGA2     0.090000        1.0080           0
      5379 P15      52       ETHY     C2       CG321   -0.180000       12.0110           0
      5380 P15      52       ETHY     H21      HGA2     0.090000        1.0080           0
      5381 P15      52       ETHY     H23      HGA2     0.090000        1.0080           0
      5382 P15      53       ETHY     C1       CG321   -0.180000       12.0110           0
      5383 P15      53       ETHY     H11      HGA2     0.090000        1.0080           0
      5384 P15      53       ETHY     H13      HGA2     0.090000        1.0080           0
      5385 P15      53       ETHY     C2       CG321   -0.180000       12.0110           0
      5386 P15      53       ETHY     H21      HGA2     0.090000        1.0080           0
      5387 P15      53       ETHY     H23      HGA2     0.090000        1.0080           0
      5388 P15      54       ETHY     C1       CG321   -0.180000       12.0110           0
      5389 P15      54       ETHY     H11      HGA2     0.090000        1.0080           0
      5390 P15      54       ETHY     H13      HGA2     0.090000        1.0080           0
      5391 P15      54       ETHY     C2       CG321   -0.180000       12.0110           0
      5392 P15      54       ETHY     H21      HGA2     0.090000        1.0080           0
      5393 P15      54       ETHY     H23      HGA2     0.090000        1.0080           0
      5394 P15      55       ETHY     C1       CG321   -0.180000       12.0110           0
      5395 P15      55       ETHY     H11      HGA2     0.090000        1.0080           0
      5396 P15      55       ETHY     H13      HGA2     0.090000        1.0080           0
      5397 P15      55       ETHY     C2       CG321   -0.180000       12.0110           0
      5398 P15      55       ETHY     H21      HGA2     0.090000        1.0080           0
      5399 P15      55       ETHY     H23      HGA2     0.090000        1.0080           0
      5400 P15      56       ETHY     C1       CG321   -0.180000       12.0110           0
      5401 P15      56       ETHY     H11      HGA2     0.090000        1.0080           0
      5402 P15      56       ETHY     H13      HGA2     0.090000        1.0080           0
      5403 P15      56       ETHY     C2       CG321   -0.180000       12.0110           0
      5404 P15      56       ETHY     H21      HGA2     0.090000        1.0080           0
      5405 P15      56       ETHY     H23      HGA2     0.090000        1.0080           0
      5406 P15      57       ETHY     C1       CG321   -0.180000       12.0110           0
      5407 P15      57       ETHY     H11      HGA2     0.090000        1.0080           0
      5408 P15      57       ETHY     H13      HGA2     0.090000        1.0080           0
      5409 P15      57       ETHY     C2       CG321   -0.180000       12.0110           0
      5410 P15      57       ETHY     H21      HGA2     0.090000        1.0080           0
      5411 P15      57       ETHY     H23      HGA2     0.090000        1.0080           0
      5412 P15      58       ETHY     C1       CG321   -0.180000       12.0110           0
      5413 P15      58       ETHY     H11      HGA2     0.090000        1.0080           0
      5414 P15      58       ETHY     H13      HGA2     0.090000        1.0080           0
      5415 P15      58       ETHY     C2       CG321   -0.180000       12.0110           0
      5416 P15      58       ETHY     H21      HGA2     0.090000        1.0080           0
      5417 P15      58       ETHY     H23      HGA2     0.090000        1.0080           0
      5418 P15      59       ETHY     C1       CG321   -0.180000       12.0110           0
      5419 P15      59       ETHY     H11      HGA2     0.090000        1.0080           0
      5420 P15      59       ETHY     H13      HGA2     0.090000        1.0080           0
      5421 P15      59       ETHY     C2       CG321   -0.180000       12.0110           0
      5422 P15      59       ETHY     H21      HGA2     0.090000        1.0080           0
      5423 P15      59       ETHY     H23      HGA2     0.090000        1.0080           0
      5424 P15      60       ETHY     C1       CG321   -0.180000       12.0110           0
      5425 P15      60       ETHY     H11      HGA2     0.090000        1.0080           0
      5426 P15      60       ETHY     H13      HGA2     0.090000        1.0080           0
      5427 P15      60       ETHY     C2       CG331   -0.270000       12.0110           0
      5428 P15      60       ETHY     H22      HGA3     0.090000        1.0080           0
      5429 P15      60       ETHY     H21      HGA3     0.090000        1.0080           0
      5430 P15      60       ETHY     H23      HGA3     0.090000        1.0080           0
      5431 P16      1        ETHY     C1       CG331   -0.270000       12.0110           0
      5432 P16      1        ETHY     H11      HGA3     0.090000        1.0080           0
      5433 P16      1        ETHY     H12      HGA3     0.090000        1.0080           0
      5434 P16      1        ETHY     H13      HGA3     0.090000        1.0080           0
      5435 P16      1        ETHY     C2       CG321   -0.180000       12.0110           0
      5436 P16      1        ETHY     H21      HGA2     0.090000        1.0080           0
      5437 P16      1        ETHY     H23      HGA2     0.090000        1.0080           0
      5438 P16      2        ETHY     C1       CG321   -0.180000       12.0110           0
      5439 P16      2        ETHY     H11      HGA2     0.090000        1.0080           0
      5440 P16      2        ETHY     H13      HGA2     0.090000        1.0080           0
      5441 P16      2        ETHY     C2       CG321   -0.180000       12.0110           0
      5442 P16      2        ETHY     H21      HGA2     0.090000        1.0080           0
      5443 P16      2        ETHY     H23      HGA2     0.090000        1.0080           0
      5444 P16      3        ETHY     C1       CG321   -0.180000       12.0110           0
      5445 P16      3        ETHY     H11      HGA2     0.090000        1.0080           0
      5446 P16      3        ETHY     H13      HGA2     0.090000        1.0080           0
      5447 P16      3        ETHY     C2       CG321   -0.180000       12.0110           0
      5448 P16      3        ETHY     H21      HGA2     0.090000        1.0080           0
      5449 P16      3        ETHY     H23      HGA2     0.090000        1.0080           0
      5450 P16      4        ETHY     C1       CG321   -0.180000       12.0110           0
      5451 P16      4        ETHY     H11      HGA2     0.090000        1.0080           0
      5452 P16      4        ETHY     H13      HGA2     0.090000        1.0080           0
      5453 P16      4        ETHY     C2       CG321   -0.180000       12.0110           0
      5454 P16      4        ETHY     H21      HGA2     0.090000        1.0080           0
      5455 P16      4        ETHY     H23      HGA2     0.090000        1.0080           0
      5456 P16      5        ETHY     C1       CG321   -0.180000       12.0110           0
      5457 P16      5        ETHY     H11      HGA2     0.090000        1.0080           0
      5458 P16      5        ETHY     H13      HGA2     0.090000        1.0080           0
      5459 P16      5        ETHY     C2       CG321   -0.180000       12.0110           0
      5460 P16      5        ETHY     H21      HGA2     0.090000        1.0080           0
      5461 P16      5        ETHY     H23      HGA2     0.090000        1.0080           0
      5462 P16      6        ETHY     C1       CG321   -0.180000       12.0110           0
      5463 P16      6        ETHY     H11      HGA2     0.090000        1.0080           0
      5464 P16      6        ETHY     H13      HGA2     0.090000        1.0080           0
      5465 P16      6        ETHY     C2       CG321   -0.180000       12.0110           0
      5466 P16      6        ETHY     H21      HGA2     0.090000        1.0080           0
      5467 P16      6        ETHY     H23      HGA2     0.090000        1.0080           0
      5468 P16      7        ETHY     C1       CG321   -0.180000       12.0110           0
      5469 P16      7        ETHY     H11      HGA2     0.090000        1.0080           0
      5470 P16      7        ETHY     H13      HGA2     0.090000        1.0080           0
      5471 P16      7        ETHY     C2       CG321   -0.180000       12.0110           0
      5472 P16      7        ETHY     H21      HGA2     0.090000        1.0080           0
      5473 P16      7        ETHY     H23      HGA2     0.090000        1.0080           0
      5474 P16      8        ETHY     C1       CG321   -0.180000       12.0110           0
      5475 P16      8        ETHY     H11      HGA2     0.090000        1.0080           0
      5476 P16      8        ETHY     H13      HGA2     0.090000        1.0080           0
      5477 P16      8        ETHY     C2       CG321   -0.180000       12.0110           0
      5478 P16      8        ETHY     H21      HGA2     0.090000        1.0080           0
      5479 P16      8        ETHY     H23      HGA2     0.090000        1.0080           0
      5480 P16      9        ETHY     C1       CG321   -0.180000       12.0110           0
      5481 P16      9        ETHY     H11      HGA2     0.090000        1.0080           0
      5482 P16      9        ETHY     H13      HGA2     0.090000        1.0080           0
      5483 P16      9        ETHY     C2       CG321   -0.180000       12.0110           0
      5484 P16      9        ETHY     H21      HGA2     0.090000        1.0080           0
      5485 P16      9        ETHY     H23      HGA2     0.090000        1.0080           0
      5486 P16      10       ETHY     C1       CG321   -0.180000       12.0110           0
      5487 P16      10       ETHY     H11      HGA2     0.090000        1.0080           0
      5488 P16      10       ETHY     H13      HGA2     0.090000        1.0080           0
      5489 P16      10       ETHY     C2       CG321   -0.180000       12.0110           0
      5490 P16      10       ETHY     H21      HGA2     0.090000        1.0080           0
      5491 P16      10       ETHY     H23      HGA2     0.090000        1.0080           0
      5492 P16      11       ETHY     C1       CG321   -0.180000       12.0110           0
      5493 P16      11       ETHY     H11      HGA2     0.090000        1.0080           0
      5494 P16      11       ETHY     H13      HGA2     0.090000        1.0080           0
      5495 P16      11       ETHY     C2       CG321   -0.180000       12.0110           0
      5496 P16      11       ETHY     H21      HGA2     0.090000        1.0080           0
      5497 P16      11       ETHY     H23      HGA2     0.090000        1.0080           0
      5498 P16      12       ETHY     C1       CG321   -0.180000       12.0110           0
      5499 P16      12       ETHY     H11      HGA2     0.090000        1.0080           0
      5500 P16      12       ETHY     H13      HGA2     0.090000        1.0080           0
      5501 P16      12       ETHY     C2       CG321   -0.180000       12.0110           0
      5502 P16      12       ETHY     H21      HGA2     0.090000        1.0080           0
      5503 P16      12       ETHY     H23      HGA2     0.090000        1.0080           0
      5504 P16      13       ETHY     C1       CG321   -0.180000       12.0110           0
      5505 P16      13       ETHY     H11      HGA2     0.090000        1.0080           0
      5506 P16      13       ETHY     H13      HGA2     0.090000        1.0080           0
      5507 P16      13       ETHY     C2       CG321   -0.180000       12.0110           0
      5508 P16      13       ETHY     H21      HGA2     0.090000        1.0080           0
      5509 P16      13       ETHY     H23      HGA2     0.090000        1.0080           0
      5510 P16      14       ETHY     C1       CG321   -0.180000       12.0110           0
      5511 P16      14       ETHY     H11      HGA2     0.090000        1.0080           0
      5512 P16      14       ETHY     H13      HGA2     0.090000        1.0080           0
      5513 P16      14       ETHY     C2       CG321   -0.180000       12.0110           0
      5514 P16      14       ETHY     H21      HGA2     0.090000        1.0080           0
      5515 P16      14       ETHY     H23      HGA2     0.090000        1.0080           0
      5516 P16      15       ETHY     C1       CG321   -0.180000       12.0110           0
      5517 P16      15       ETHY     H11      HGA2     0.090000        1.0080           0
      5518 P16      15       ETHY     H13      HGA2     0.090000        1.0080           0
      5519 P16      15       ETHY     C2       CG321   -0.180000       12.0110           0
      5520 P16      15       ETHY     H21      HGA2     0.090000        1.0080           0
      5521 P16      15       ETHY     H23      HGA2     0.090000        1.0080           0
      5522 P16      16       ETHY     C1       CG321   -0.180000       12.0110           0
      5523 P16      16       ETHY     H11      HGA2     0.090000        1.0080           0
      5524 P16      16       ETHY     H13      HGA2     0.090000        1.0080           0
      5525 P16      16       ETHY     C2       CG321   -0.180000       12.0110           0
      5526 P16      16       ETHY     H21      HGA2     0.090000        1.0080           0
      5527 P16      16       ETHY     H23      HGA2     0.090000        1.0080           0
      5528 P16      17       ETHY     C1       CG321   -0.180000       12.0110           0
      5529 P16      17       ETHY     H11      HGA2     0.090000        1.0080           0
      5530 P16      17       ETHY     H13      HGA2     0.090000        1.0080           0
      5531 P16      17       ETHY     C2       CG321   -0.180000       12.0110           0
      5532 P16      17       ETHY     H21      HGA2     0.090000        1.0080           0
      5533 P16      17       ETHY     H23      HGA2     0.090000        1.0080           0
      5534 P16      18       ETHY     C1       CG321   -0.180000       12.0110           0
      5535 P16      18       ETHY     H11      HGA2     0.090000        1.0080           0
      5536 P16      18       ETHY     H13      HGA2     0.090000        1.0080           0
      5537 P16      18       ETHY     C2       CG321   -0.180000       12.0110           0
      5538 P16      18       ETHY     H21      HGA2     0.090000        1.0080           0
      5539 P16      18       ETHY     H23      HGA2     0.090000        1.0080           0
      5540 P16      19       ETHY     C1       CG321   -0.180000       12.0110           0
      5541 P16      19       ETHY     H11      HGA2     0.090000        1.0080           0
      5542 P16      19       ETHY     H13      HGA2     0.090000        1.0080           0
      5543 P16      19       ETHY     C2       CG321   -0.180000       12.0110           0
      5544 P16      19       ETHY     H21      HGA2     0.090000        1.0080           0
      5545 P16      19       ETHY     H23      HGA2     0.090000        1.0080           0
      5546 P16      20       ETHY     C1       CG321   -0.180000       12.0110           0
      5547 P16      20       ETHY     H11      HGA2     0.090000        1.0080           0
      5548 P16      20       ETHY     H13      HGA2     0.090000        1.0080           0
      5549 P16      20       ETHY     C2       CG321   -0.180000       12.0110           0
      5550 P16      20       ETHY     H21      HGA2     0.090000        1.0080           0
      5551 P16      20       ETHY     H23      HGA2     0.090000        1.0080           0
      5552 P16      21       ETHY     C1       CG321   -0.180000       12.0110           0
      5553 P16      21       ETHY     H11      HGA2     0.090000        1.0080           0
      5554 P16      21       ETHY     H13      HGA2     0.090000        1.0080           0
      5555 P16      21       ETHY     C2       CG321   -0.180000       12.0110           0
      5556 P16      21       ETHY     H21      HGA2     0.090000        1.0080           0
      5557 P16      21       ETHY     H23      HGA2     0.090000        1.0080           0
      5558 P16      22       ETHY     C1       CG321   -0.180000       12.0110           0
      5559 P16      22       ETHY     H11      HGA2     0.090000        1.0080           0
      5560 P16      22       ETHY     H13      HGA2     0.090000        1.0080           0
      5561 P16      22       ETHY     C2       CG321   -0.180000       12.0110           0
      5562 P16      22       ETHY     H21      HGA2     0.090000        1.0080           0
      5563 P16      22       ETHY     H23      HGA2     0.090000        1.0080           0
      5564 P16      23       ETHY     C1       CG321   -0.180000       12.0110           0
      5565 P16      23       ETHY     H11      HGA2     0.090000        1.0080           0
      5566 P16      23       ETHY     H13      HGA2     0.090000        1.0080           0
      5567 P16      23       ETHY     C2       CG321   -0.180000       12.0110           0
      5568 P16      23       ETHY     H21      HGA2     0.090000        1.0080           0
      5569 P16      23       ETHY     H23      HGA2     0.090000        1.0080           0
      5570 P16      24       ETHY     C1       CG321   -0.180000       12.0110           0
      5571 P16      24       ETHY     H11      HGA2     0.090000        1.0080           0
      5572 P16      24       ETHY     H13      HGA2     0.090000        1.0080           0
      5573 P16      24       ETHY     C2       CG321   -0.180000       12.0110           0
      5574 P16      24       ETHY     H21      HGA2     0.090000        1.0080           0
      5575 P16      24       ETHY     H23      HGA2     0.090000        1.0080           0
      5576 P16      25       ETHY     C1       CG321   -0.180000       12.0110           0
      5577 P16      25       ETHY     H11      HGA2     0.090000        1.0080           0
      5578 P16      25       ETHY     H13      HGA2     0.090000        1.0080           0
      5579 P16      25       ETHY     C2       CG321   -0.180000       12.0110           0
      5580 P16      25       ETHY     H21      HGA2     0.090000        1.0080           0
      5581 P16      25       ETHY     H23      HGA2     0.090000        1.0080           0
      5582 P16      26       ETHY     C1       CG321   -0.180000       12.0110           0
      5583 P16      26       ETHY     H11      HGA2     0.090000        1.0080           0
      5584 P16      26       ETHY     H13      HGA2     0.090000        1.0080           0
      5585 P16      26       ETHY     C2       CG321   -0.180000       12.0110           0
      5586 P16      26       ETHY     H21      HGA2     0.090000        1.0080           0
      5587 P16      26       ETHY     H23      HGA2     0.090000        1.0080           0
      5588 P16      27       ETHY     C1       CG321   -0.180000       12.0110           0
      5589 P16      27       ETHY     H11      HGA2     0.090000        1.0080           0
      5590 P16      27       ETHY     H13      HGA2     0.090000        1.0080           0
      5591 P16      27       ETHY     C2       CG321   -0.180000       12.0110           0
      5592 P16      27       ETHY     H21      HGA2     0.090000        1.0080           0
      5593 P16      27       ETHY     H23      HGA2     0.090000        1.0080           0
      5594 P16      28       ETHY     C1       CG321   -0.180000       12.0110           0
      5595 P16      28       ETHY     H11      HGA2     0.090000        1.0080           0
      5596 P16      28       ETHY     H13      HGA2     0.090000        1.0080           0
      5597 P16      28       ETHY     C2       CG321   -0.180000       12.0110           0
      5598 P16      28       ETHY     H21      HGA2     0.090000        1.0080           0
      5599 P16      28       ETHY     H23      HGA2     0.090000        1.0080           0
      5600 P16      29       ETHY     C1       CG321   -0.180000       12.0110           0
      5601 P16      29       ETHY     H11      HGA2     0.090000        1.0080           0
      5602 P16      29       ETHY     H13      HGA2     0.090000        1.0080           0
      5603 P16      29       ETHY     C2       CG321   -0.180000       12.0110           0
      5604 P16      29       ETHY     H21      HGA2     0.090000        1.0080           0
      5605 P16      29       ETHY     H23      HGA2     0.090000        1.0080           0
      5606 P16      30       ETHY     C1       CG321   -0.180000       12.0110           0
      5607 P16      30       ETHY     H11      HGA2     0.090000        1.0080           0
      5608 P16      30       ETHY     H13      HGA2     0.090000        1.0080           0
      5609 P16      30       ETHY     C2       CG321   -0.180000       12.0110           0
      5610 P16      30       ETHY     H21      HGA2     0.090000        1.0080           0
      5611 P16      30       ETHY     H23      HGA2     0.090000        1.0080           0
      5612 P16      31       ETHY     C1       CG321   -0.180000       12.0110           0
      5613 P16      31       ETHY     H11      HGA2     0.090000        1.0080           0
      5614 P16      31       ETHY     H13      HGA2     0.090000        1.0080           0
      5615 P16      31       ETHY     C2       CG321   -0.180000       12.0110           0
      5616 P16      31       ETHY     H21      HGA2     0.090000        1.0080           0
      5617 P16      31       ETHY     H23      HGA2     0.090000        1.0080           0
      5618 P16      32       ETHY     C1       CG321   -0.180000       12.0110           0
      5619 P16      32       ETHY     H11      HGA2     0.090000        1.0080           0
      5620 P16      32       ETHY     H13      HGA2     0.090000        1.0080           0
      5621 P16      32       ETHY     C2       CG321   -0.180000       12.0110           0
      5622 P16      32       ETHY     H21      HGA2     0.090000        1.0080           0
      5623 P16      32       ETHY     H23      HGA2     0.090000        1.0080           0
      5624 P16      33       ETHY     C1       CG321   -0.180000       12.0110           0
      5625 P16      33       ETHY     H11      HGA2     0.090000        1.0080           0
      5626 P16      33       ETHY     H13      HGA2     0.090000        1.0080           0
      5627 P16      33       ETHY     C2       CG321   -0.180000       12.0110           0
      5628 P16      33       ETHY     H21      HGA2     0.090000        1.0080           0
      5629 P16      33       ETHY     H23      HGA2     0.090000        1.0080           0
      5630 P16      34       ETHY     C1       CG321   -0.180000       12.0110           0
      5631 P16      34       ETHY     H11      HGA2     0.090000        1.0080           0
      5632 P16      34       ETHY     H13      HGA2     0.090000        1.0080           0
      5633 P16      34       ETHY     C2       CG321   -0.180000       12.0110           0
      5634 P16      34       ETHY     H21      HGA2     0.090000        1.0080           0
      5635 P16      34       ETHY     H23      HGA2     0.090000        1.0080           0
      5636 P16      35       ETHY     C1       CG321   -0.180000       12.0110           0
      5637 P16      35       ETHY     H11      HGA2     0.090000        1.0080           0
      5638 P16      35       ETHY     H13      HGA2     0.090000        1.0080           0
      5639 P16      35       ETHY     C2       CG321   -0.180000       12.0110           0
      5640 P16      35       ETHY     H21      HGA2     0.090000        1.0080           0
      5641 P16      35       ETHY     H23      HGA2     0.090000        1.0080           0
      5642 P16      36       ETHY     C1       CG321   -0.180000       12.0110           0
      5643 P16      36       ETHY     H11      HGA2     0.090000        1.0080           0
      5644 P16      36       ETHY     H13      HGA2     0.090000        1.0080           0
      5645 P16      36       ETHY     C2       CG321   -0.180000       12.0110           0
      5646 P16      36       ETHY     H21      HGA2     0.090000        1.0080           0
      5647 P16      36       ETHY     H23      HGA2     0.090000        1.0080           0
      5648 P16      37       ETHY     C1       CG321   -0.180000       12.0110           0
      5649 P16      37       ETHY     H11      HGA2     0.090000        1.0080           0
      5650 P16      37       ETHY     H13      HGA2     0.090000        1.0080           0
      5651 P16      37       ETHY     C2       CG321   -0.180000       12.0110           0
      5652 P16      37       ETHY     H21      HGA2     0.090000        1.0080           0
      5653 P16      37       ETHY     H23      HGA2     0.090000        1.0080           0
      5654 P16      38       ETHY     C1       CG321   -0.180000       12.0110           0
      5655 P16      38       ETHY     H11      HGA2     0.090000        1.0080           0
      5656 P16      38       ETHY     H13      HGA2     0.090000        1.0080           0
      5657 P16      38       ETHY     C2       CG321   -0.180000       12.0110           0
      5658 P16      38       ETHY     H21      HGA2     0.090000        1.0080           0
      5659 P16      38       ETHY     H23      HGA2     0.090000        1.0080           0
      5660 P16      39       ETHY     C1       CG321   -0.180000       12.0110           0
      5661 P16      39       ETHY     H11      HGA2     0.090000        1.0080           0
      5662 P16      39       ETHY     H13      HGA2     0.090000        1.0080           0
      5663 P16      39       ETHY     C2       CG321   -0.180000       12.0110           0
      5664 P16      39       ETHY     H21      HGA2     0.090000        1.0080           0
      5665 P16      39       ETHY     H23      HGA2     0.090000        1.0080           0
      5666 P16      40       ETHY     C1       CG321   -0.180000       12.0110           0
      5667 P16      40       ETHY     H11      HGA2     0.090000        1.0080           0
      5668 P16      40       ETHY     H13      HGA2     0.090000        1.0080           0
      5669 P16      40       ETHY     C2       CG321   -0.180000       12.0110           0
      5670 P16      40       ETHY     H21      HGA2     0.090000        1.0080           0
      5671 P16      40       ETHY     H23      HGA2     0.090000        1.0080           0
      5672 P16      41       ETHY     C1       CG321   -0.180000       12.0110           0
      5673 P16      41       ETHY     H11      HGA2     0.090000        1.0080           0
      5674 P16      41       ETHY     H13      HGA2     0.090000        1.0080           0
      5675 P16      41       ETHY     C2       CG321   -0.180000       12.0110           0
      5676 P16      41       ETHY     H21      HGA2     0.090000        1.0080           0
      5677 P16      41       ETHY     H23      HGA2     0.090000        1.0080           0
      5678 P16      42       ETHY     C1       CG321   -0.180000       12.0110           0
      5679 P16      42       ETHY     H11      HGA2     0.090000        1.0080           0
      5680 P16      42       ETHY     H13      HGA2     0.090000        1.0080           0
      5681 P16      42       ETHY     C2       CG321   -0.180000       12.0110           0
      5682 P16      42       ETHY     H21      HGA2     0.090000        1.0080           0
      5683 P16      42       ETHY     H23      HGA2     0.090000        1.0080           0
      5684 P16      43       ETHY     C1       CG321   -0.180000       12.0110           0
      5685 P16      43       ETHY     H11      HGA2     0.090000        1.0080           0
      5686 P16      43       ETHY     H13      HGA2     0.090000        1.0080           0
      5687 P16      43       ETHY     C2       CG321   -0.180000       12.0110           0
      5688 P16      43       ETHY     H21      HGA2     0.090000        1.0080           0
      5689 P16      43       ETHY     H23      HGA2     0.090000        1.0080           0
      5690 P16      44       ETHY     C1       CG321   -0.180000       12.0110           0
      5691 P16      44       ETHY     H11      HGA2     0.090000        1.0080           0
      5692 P16      44       ETHY     H13      HGA2     0.090000        1.0080           0
      5693 P16      44       ETHY     C2       CG321   -0.180000       12.0110           0
      5694 P16      44       ETHY     H21      HGA2     0.090000        1.0080           0
      5695 P16      44       ETHY     H23      HGA2     0.090000        1.0080           0
      5696 P16      45       ETHY     C1       CG321   -0.180000       12.0110           0
      5697 P16      45       ETHY     H11      HGA2     0.090000        1.0080           0
      5698 P16      45       ETHY     H13      HGA2     0.090000        1.0080           0
      5699 P16      45       ETHY     C2       CG321   -0.180000       12.0110           0
      5700 P16      45       ETHY     H21      HGA2     0.090000        1.0080           0
      5701 P16      45       ETHY     H23      HGA2     0.090000        1.0080           0
      5702 P16      46       ETHY     C1       CG321   -0.180000       12.0110           0
      5703 P16      46       ETHY     H11      HGA2     0.090000        1.0080           0
      5704 P16      46       ETHY     H13      HGA2     0.090000        1.0080           0
      5705 P16      46       ETHY     C2       CG321   -0.180000       12.0110           0
      5706 P16      46       ETHY     H21      HGA2     0.090000        1.0080           0
      5707 P16      46       ETHY     H23      HGA2     0.090000        1.0080           0
      5708 P16      47       ETHY     C1       CG321   -0.180000       12.0110           0
      5709 P16      47       ETHY     H11      HGA2     0.090000        1.0080           0
      5710 P16      47       ETHY     H13      HGA2     0.090000        1.0080           0
      5711 P16      47       ETHY     C2       CG321   -0.180000       12.0110           0
      5712 P16      47       ETHY     H21      HGA2     0.090000        1.0080           0
      5713 P16      47       ETHY     H23      HGA2     0.090000        1.0080           0
      5714 P16      48       ETHY     C1       CG321   -0.180000       12.0110           0
      5715 P16      48       ETHY     H11      HGA2     0.090000        1.0080           0
      5716 P16      48       ETHY     H13      HGA2     0.090000        1.0080           0
      5717 P16      48       ETHY     C2       CG321   -0.180000       12.0110           0
      5718 P16      48       ETHY     H21      HGA2     0.090000        1.0080           0
      5719 P16      48       ETHY     H23      HGA2     0.090000        1.0080           0
      5720 P16      49       ETHY     C1       CG321   -0.180000       12.0110           0
      5721 P16      49       ETHY     H11      HGA2     0.090000        1.0080           0
      5722 P16      49       ETHY     H13      HGA2     0.090000        1.0080           0
      5723 P16      49       ETHY     C2       CG321   -0.180000       12.0110           0
      5724 P16      49       ETHY     H21      HGA2     0.090000        1.0080           0
      5725 P16      49       ETHY     H23      HGA2     0.090000        1.0080           0
      5726 P16      50       ETHY     C1       CG321   -0.180000       12.0110           0
      5727 P16      50       ETHY     H11      HGA2     0.090000        1.0080           0
      5728 P16      50       ETHY     H13      HGA2     0.090000        1.0080           0
      5729 P16      50       ETHY     C2       CG321   -0.180000       12.0110           0
      5730 P16      50       ETHY     H21      HGA2     0.090000        1.0080           0
      5731 P16      50       ETHY     H23      HGA2     0.090000        1.0080           0
      5732 P16      51       ETHY     C1       CG321   -0.180000       12.0110           0
      5733 P16      51       ETHY     H11      HGA2     0.090000        1.0080           0
      5734 P16      51       ETHY     H13      HGA2     0.090000        1.0080           0
      5735 P16      51       ETHY     C2       CG321   -0.180000       12.0110           0
      5736 P16      51       ETHY     H21      HGA2     0.090000        1.0080           0
      5737 P16      51       ETHY     H23      HGA2     0.090000        1.0080           0
      5738 P16      52       ETHY     C1       CG321   -0.180000       12.0110           0
      5739 P16      52       ETHY     H11      HGA2     0.090000        1.0080           0
      5740 P16      52       ETHY     H13      HGA2     0.090000        1.0080           0
      5741 P16      52       ETHY     C2       CG321   -0.180000       12.0110           0
      5742 P16      52       ETHY     H21      HGA2     0.090000        1.0080           0
      5743 P16      52       ETHY     H23      HGA2     0.090000        1.0080           0
      5744 P16      53       ETHY     C1       CG321   -0.180000       12.0110           0
      5745 P16      53       ETHY     H11      HGA2     0.090000        1.0080           0
      5746 P16      53       ETHY     H13      HGA2     0.090000        1.0080           0
      5747 P16      53       ETHY     C2       CG321   -0.180000       12.0110           0
      5748 P16      53       ETHY     H21      HGA2     0.090000        1.0080           0
      5749 P16      53       ETHY     H23      HGA2     0.090000        1.0080           0
      5750 P16      54       ETHY     C1       CG321   -0.180000       12.0110           0
      5751 P16      54       ETHY     H11      HGA2     0.090000        1.0080           0
      5752 P16      54       ETHY     H13      HGA2     0.090000        1.0080           0
      5753 P16      54       ETHY     C2       CG321   -0.180000       12.0110           0
      5754 P16      54       ETHY     H21      HGA2     0.090000        1.0080           0
      5755 P16      54       ETHY     H23      HGA2     0.090000        1.0080           0
      5756 P16      55       ETHY     C1       CG321   -0.180000       12.0110           0
      5757 P16      55       ETHY     H11      HGA2     0.090000        1.0080           0
      5758 P16      55       ETHY     H13      HGA2     0.090000        1.0080           0
      5759 P16      55       ETHY     C2       CG321   -0.180000       12.0110           0
      5760 P16      55       ETHY     H21      HGA2     0.090000        1.0080           0
      5761 P16      55       ETHY     H23      HGA2     0.090000        1.0080           0
      5762 P16      56       ETHY     C1       CG321   -0.180000       12.0110           0
      5763 P16      56       ETHY     H11      HGA2     0.090000        1.0080           0
      5764 P16      56       ETHY     H13      HGA2     0.090000        1.0080           0
      5765 P16      56       ETHY     C2       CG321   -0.180000       12.0110           0
      5766 P16      56       ETHY     H21      HGA2     0.090000        1.0080           0
      5767 P16      56       ETHY     H23      HGA2     0.090000        1.0080           0
      5768 P16      57       ETHY     C1       CG321   -0.180000       12.0110           0
      5769 P16      57       ETHY     H11      HGA2     0.090000        1.0080           0
      5770 P16      57       ETHY     H13      HGA2     0.090000        1.0080           0
      5771 P16      57       ETHY     C2       CG321   -0.180000       12.0110           0
      5772 P16      57       ETHY     H21      HGA2     0.090000        1.0080           0
      5773 P16      57       ETHY     H23      HGA2     0.090000        1.0080           0
      5774 P16      58       ETHY     C1       CG321   -0.180000       12.0110           0
      5775 P16      58       ETHY     H11      HGA2     0.090000        1.0080           0
      5776 P16      58       ETHY     H13      HGA2     0.090000        1.0080           0
      5777 P16      58       ETHY     C2       CG321   -0.180000       12.0110           0
      5778 P16      58       ETHY     H21      HGA2     0.090000        1.0080           0
      5779 P16      58       ETHY     H23      HGA2     0.090000        1.0080           0
      5780 P16      59       ETHY     C1       CG321   -0.180000       12.0110           0
      5781 P16      59       ETHY     H11      HGA2     0.090000        1.0080           0
      5782 P16      59       ETHY     H13      HGA2     0.090000        1.0080           0
      5783 P16      59       ETHY     C2       CG321   -0.180000       12.0110           0
      5784 P16      59       ETHY     H21      HGA2     0.090000        1.0080           0
      5785 P16      59       ETHY     H23      HGA2     0.090000        1.0080           0
      5786 P16      60       ETHY     C1       CG321   -0.180000       12.0110           0
      5787 P16      60       ETHY     H11      HGA2     0.090000        1.0080           0
      5788 P16      60       ETHY     H13      HGA2     0.090000        1.0080           0
      5789 P16      60       ETHY     C2       CG331   -0.270000       12.0110           0
      5790 P16      60       ETHY     H22      HGA3     0.090000        1.0080           0
      5791 P16      60       ETHY     H21      HGA3     0.090000        1.0080           0
      5792 P16      60       ETHY     H23      HGA3     0.090000        1.0080           0

    5776 !NBOND: bonds
         1         2         1         4         1         5         3         1
         5         6         5         7         5         8         8         9
         8        10         8        11        11        12        11        13
        11        14        14        15        14        16        14        17
        17        18        17        19        17        20        20        21
        20        22        20        23        23        24        23        25
        23        26        26        27        26        28        26        29
        29        30        29        31        29        32        32        33
        32        34        32        35        35        36        35        37
        35        38        38        39        38        40        38        41
        41        42        41        43        41        44        44        45
        44        46        44        47        47        48        47        49
        47        50        50        51        50        52        50        53
        53        54        53        55        53        56        56        57
        56        58        56        59        59        60        59        61
        59        62        62        63        62        64        62        65
        65        66        65        67        65        68        68        69
        68        70        68        71        71        72        71        73
        71        74        74        75        74        76        74        77
        77        78        77        79        77        80        80        81
        80        82        80        83        83        84        83        85
        83        86        86        87        86        88        86        89
        89        90        89        91        89        92        92        93
        92        94        92        95        95        96        95        97
        95        98        98        99        98       100        98       101
       101       102       101       103       101       104       104       105
       104       106       104       107       107       108       107       109
       107       110       110       111       110       112       110       113
       113       114       113       115       113       116       116       117
       116       118       116       119       119       120       119       121
       119       122       122       123       122       124       122       125
       125       126       125       127       125       128       128       129
       128       130       128       131       131       132       131       133
       131       134       134       135       134       136       134       137
       137       138       137       139       137       140       140       141
       140       142       140       143       143       144       143       145
       143       146       146       147       146       148       146       149
       149       150       149       151       149       152       152       153
       152       154       152       155       155       156       155       157
       155       158       158       159       158       160       158       161
       161       162       161       163       161       164       164       165
       164       166       164       167       167       168       167       169
       167       170       170       171       170       172       170       173
       173       174       173       175       173       176       176       177
       176       178       176       179       179       180       179       181
       179       182       182       183       182       184       182       185
       185       186       185       187       185       188       188       189
       188       190       188       191       191       192       191       193
       191       194       194       195       194       196       194       197
       197       198       197       199       197       200       200       201
       200       202       200       203       203       204       203       205
       203       206       206       207       206       208       206       209
       209       210       209       211       209       212       212       213
       212       214       212       215       215       216       215       217
       215       218       218       219       218       220       218       221
       221       222       221       223       221       224       224       225
       224       226       224       227       227       228       227       229
       227       230       230       231       230       232       230       233
       233       234       233       235       233       236       236       237
       236       238       236       239       239       240       239       241
       239       242       242       243       242       244       242       245
       245       246       245       247       245       248       248       249
       248       250       248       251       251       252       251       253
       251       254       254       255       254       256       254       257
       257       258       257       259       257       260       260       261
       260       262       260       263       263       264       263       265
       263       266       266       267       266       268       266       269
       269       270       269       271       269       272       272       273
       272       274       272       275       275       276       275       277
       275       278       278       279       278       280       278       281
       281       282       281       283       281       284       284       285
       284       286       284       287       287       288       287       289
       287       290       290       291       290       292       290       293
       293       294       293       295       293       296       296       297
       296       298       296       299       299       300       299       301
       299       302       302       303       302       304       302       305
       305       306       305       307       305       308       308       309
       308       310       308       311       311       312       311       313
       311       314       314       315       314       316       314       317
       317       318       317       319       317       320       320       321
       320       322       320       323       323       324       323       325
       323       326       326       327       326       328       326       329
       329       330       329       331       329       332       332       333
       332       334       332       335       335       336       335       337
       335       338       338       339       338       340       338       341
       341       342       341       343       341       344       344       345
       344       346       344       347       347       348       347       349
       347       350       350       351       350       352       350       353
       353       354       353       355       353       356       356       357
       356       358       356       359       359       361       359       362
       360       359       363       364       363       366       363       367
       365       363       367       368       367       369       367       370
       370       371       370       372       370       373       373       374
       373       375       373       376       376       377       376       378
       376       379       379       380       379       381       379       382
       382       383       382       384       382       385       385       386
       385       387       385       388       388       389       388       390
       388       391       391       392       391       393       391       394
       394       395       394       396       394       397       397       398
       397       399       397       400       400       401       400       402
       400       403       403       404       403       405       403       406
       406       407       406       408       406       409       409       410
       409       411       409       412       412       413       412       414
       412       415       415       416       415       417       415       418
       418       419       418       420       418       421       421       422
       421       423       421       424       424       425       424       426
       424       427       427       428       427       429       427       430
       430       431       430       432       430       433       433       434
       433       435       433       436       436       437       436       438
       436       439       439       440       439       441       439       442
       442       443       442       444       442       445       445       446
       445       447       445       448       448       449       448       450
       448       451       451       452       451       453       451       454
       454       455       454       456       454       457       457       458
       457       459       457       460       460       461       460       462
       460       463       463       464       463       465       463       466
       466       467       466       468       466       469       469       470
       469       471       469       472       472       473       472       474
       472       475       475       476       475       477       475       478
       478       479       478       480       478       481       481       482
       481       483       481       484       484       485       484       486
       484       487       487       488       487       489       487       490
       490       491       490       492       490       493       493       494
       493       495       493       496       496       497       496       498
       496       499       499       500       499       501       499       502
       502       503       502       504       502       505       505       506
       505       507       505       508       508       509       508       510
       508       511       511       512       511       513       511       514
       514       515       514       516       514       517       517       518
       517       519       517       520       520       521       520       522
       520       523       523       524       523       525       523       526
       526       527       526       528       526       529       529       530
       529       531       529       532       532       533       532       534
       532       535       535       536       535       537       535       538
       538       539       538       540       538       541       541       542
       541       543       541       544       544       545       544       546
       544       547       547       548       547       549       547       550
       550       551       550       552       550       553       553       554
       553       555       553       556       556       557       556       558
       556       559       559       560       559       561       559       562
       562       563       562       564       562       565       565       566
       565       567       565       568       568       569       568       570
       568       571       571       572       571       573       571       574
       574       575       574       576       574       577       577       578
       577       579       577       580       580       581       580       582
       580       583       583       584       583       585       583       586
       586       587       586       588       586       589       589       590
       589       591       589       592       592       593       592       594
       592       595       595       596       595       597       595       598
       598       599       598       600       598       601       601       602
       601       603       601       604       604       605       604       606
       604       607       607       608       607       609       607       610
       610       611       610       612       610       613       613       614
       613       615       613       616       616       617       616       618
       616       619       619       620       619       621       619       622
       622       623       622       624       622       625       625       626
       625       627       625       628       628       629       628       630
       628       631       631       632       631       633       631       634
       634       635       634       636       634       637       637       638
       637       639       637       640       640       641       640       642
       640       643       643       644       643       645       643       646
       646       647       646       648       646       649       649       650
       649       651       649       652       652       653       652       654
       652       655       655       656       655       657       655       658
       658       659       658       660       658       661       661       662
       661       663       661       664       664       665       664       666
       664       667       667       668       667       669       667       670
       670       671       670       672       670       673       673       674
       673       675       673       676       676       677       676       678
       676       679       679       680       679       681       679       682
       682       683       682       684       682       685       685       686
       685       687       685       688       688       689       688       690
       688       691       691       692       691       693       691       694
       694       695       694       696       694       697       697       698
       697       699       697       700       700       701       700       702
       700       703       703       704       703       705       703       706
       706       707       706       708       706       709       709       710
       709       711       709       712       712       713       712       714
       712       715       715       716       715       717       715       718
       718       719       718       720       718       721       721       723
       721       724       722       721       725       726       725       728
       725       729       727       725       729       730       729       731
       729       732       732       733       732       734       732       735
       735       736       735       737       735       738       738       739
       738       740       738       741       741       742       741       743
       741       744       744       745       744       746       744       747
       747       748       747       749       747       750       750       751
       750       752       750       753       753       754       753       755
       753       756       756       757       756       758       756       759
       759       760       759       761       759       762       762       763
       762       764       762       765       765       766       765       767
       765       768       768       769       768       770       768       771
       771       772       771       773       771       774       774       775
       774       776       774       777       777       778       777       779
       777       780       780       781       780       782       780       783
       783       784       783       785       783       786       786       787
       786       788       786       789       789       790       789       791
       789       792       792       793       792       794       792       795
       795       796       795       797       795       798       798       799
       798       800       798       801       801       802       801       803
       801       804       804       805       804       806       804       807
       807       808       807       809       807       810       810       811
       810       812       810       813       813       814       813       815
       813       816       816       817       816       818       816       819
       819       820       819       821       819       822       822       823
       822       824       822       825       825       826       825       827
       825       828       828       829       828       830       828       831
       831       832       831       833       831       834       834       835
       834       836       834       837       837       838       837       839
       837       840       840       841       840       842       840       843
       843       844       843       845       843       846       846       847
       846       848       846       849       849       850       849       851
       849       852       852       853       852       854       852       855
       855       856       855       857       855       858       858       859
       858       860       858       861       861       862       861       863
       861       864       864       865       864       866       864       867
       867       868       867       869       867       870       870       871
       870       872       870       873       873       874       873       875
       873       876       876       877       876       878       876       879
       879       880       879       881       879       882       882       883
       882       884       882       885       885       886       885       887
       885       888       888       889       888       890       888       891
       891       892       891       893       891       894       894       895
       894       896       894       897       897       898       897       899
       897       900       900       901       900       902       900       903
       903       904       903       905       903       906       906       907
       906       908       906       909       909       910       909       911
       909       912       912       913       912       914       912       915
       915       916       915       917       915       918       918       919
       918       920       918       921       921       922       921       923
       921       924       924       925       924       926       924       927
       927       928       927       929       927       930       930       931
       930       932       930       933       933       934       933       935
       933       936       936       937       936       938       936       939
       939       940       939       941       939       942       942       943
       942       944       942       945       945       946       945       947
       945       948       948       949       948       950       948       951
       951       952       951       953       951       954       954       955
       954       956       954       957       957       958       957       959
       957       960       960       961       960       962       960       963
       963       964       963       965       963       966       966       967
       966       968       966       969       969       970       969       971
       969       972       972       973       972       974       972       975
       975       976       975       977       975       978       978       979
       978       980       978       981       981       982       981       983
       981       984       984       985       984       986       984       987
       987       988       987       989       987       990       990       991
       990       992       990       993       993       994       993       995
       993       996       996       997       996       998       996       999
       999      1000       999      1001       999      1002      1002      1003
      1002      1004      1002      1005      1005      1006      1005      1007
      1005      1008      1008      1009      1008      1010      1008      1011
      1011      1012      1011      1013      1011      1014      1014      1015
      1014      1016      1014      1017      1017      1018      1017      1019
      1017      1020      1020      1021      1020      1022      1020      1023
      1023      1024      1023      1025      1023      1026      1026      1027
      1026      1028      1026      1029      1029      1030      1029      1031
      1029      1032      1032      1033      1032      1034      1032      1035
      1035      1036      1035      1037      1035      1038      1038      1039
      1038      1040      1038      1041      1041      1042      1041      1043
      1041      1044      1044      1045      1044      1046      1044      1047
      1047      1048      1047      1049      1047      1050      1050      1051
      1050      1052      1050      1053      1053      1054      1053      1055
      1053      1056      1056      1057      1056      1058      1056      1059
      1059      1060      1059      1061      1059      1062      1062      1063
      1062      1064      1062      1065      1065      1066      1065      1067
      1065      1068      1068      1069      1068      1070      1068      1071
      1071      1072      1071      1073      1071      1074      1074      1075
      1074      1076      1074      1077      1077      1078      1077      1079
      1077      1080      1080      1081      1080      1082      1080      1083
      1083      1085      1083      1086      1084      1083      1087      1088
      1087      1090      1087      1091      1089      1087      1091      1092
      1091      1093      1091      1094      1094      1095      1094      1096
      1094      1097      1097      1098      1097      1099      1097      1100
      1100      1101      1100      1102      1100      1103      1103      1104
      1103      1105      1103      1106      1106      1107      1106      1108
      1106      1109      1109      1110      1109      1111      1109      1112
      1112      1113      1112      1114      1112      1115      1115      1116
      1115      1117      1115      1118      1118      1119      1118      1120
      1118      1121      1121      1122      1121      1123      1121      1124
      1124      1125      1124      1126      1124      1127      1127      1128
      1127      1129      1127      1130      1130      1131      1130      1132
      1130      1133      1133      1134      1133      1135      1133      1136
      1136      1137      1136      1138      1136      1139      1139      1140
      1139      1141      1139      1142      1142      1143      1142      1144
      1142      1145      1145      1146      1145      1147      1145      1148
      1148      1149      1148      1150      1148      1151      1151      1152
      1151      1153      1151      1154      1154      1155      1154      1156
      1154      1157      1157      1158      1157      1159      1157      1160
      1160      1161      1160      1162      1160      1163      1163      1164
      1163      1165      1163      1166      1166      1167      1166      1168
      1166      1169      1169      1170      1169      1171      1169      1172
      1172      1173      1172      1174      1172      1175      1175      1176
      1175      1177      1175      1178      1178      1179      1178      1180
      1178      1181      1181      1182      1181      1183      1181      1184
      1184      1185      1184      1186      1184      1187      1187      1188
      1187      1189      1187      1190      1190      1191      1190      1192
      1190      1193      1193      1194      1193      1195      1193      1196
      1196      1197      1196      1198      1196      1199      1199      1200
      1199      1201      1199      1202      1202      1203      1202      1204
      1202      1205      1205      1206      1205      1207      1205      1208
      1208      1209      1208      1210      1208      1211      1211      1212
      1211      1213      1211      1214      1214      1215      1214      1216
      1214      1217      1217      1218      1217      1219      1217      1220
      1220      1221      1220      1222      1220      1223      1223      1224
      1223      1225      1223      1226      1226      1227      1226      1228
      1226      1229      1229      1230      1229      1231      1229      1232
      1232      1233      1232      1234      1232      1235      1235      1236
      1235      1237      1235      1238      1238      1239      1238      1240
      1238      1241      1241      1242      1241      1243      1241      1244
      1244      1245      1244      1246      1244      1247      1247      1248
      1247      1249      1247      1250      1250      1251      1250      1252
      1250      1253      1253      1254      1253      1255      1253      1256
      1256      1257      1256      1258      1256      1259      1259      1260
      1259      1261      1259      1262      1262      1263      1262      1264
      1262      1265      1265      1266      1265      1267      1265      1268
      1268      1269      1268      1270      1268      1271      1271      1272
      1271      1273      1271      1274      1274      1275      1274      1276
      1274      1277      1277      1278      1277      1279      1277      1280
      1280      1281      1280      1282      1280      1283      1283      1284
      1283      1285      1283      1286      1286      1287      1286      1288
      1286      1289      1289      1290      1289      1291      1289      1292
      1292      1293      1292      1294      1292      1295      1295      1296
      1295      1297      1295      1298      1298      1299      1298      1300
      1298      1301      1301      1302      1301      1303      1301      1304
      1304      1305      1304      1306      1304      1307      1307      1308
      1307      1309      1307      1310      1310      1311      1310      1312
      1310      1313      1313      1314      1313      1315      1313      1316
      1316      1317      1316      1318      1316      1319      1319      1320
      1319      1321      1319      1322      1322      1323      1322      1324
      1322      1325      1325      1326      1325      1327      1325      1328
      1328      1329      1328      1330      1328      1331      1331      1332
      1331      1333      1331      1334      1334      1335      1334      1336
      1334      1337      1337      1338      1337      1339      1337      1340
      1340      1341      1340      1342      1340      1343      1343      1344
      1343      1345      1343      1346      1346      1347      1346      1348
      1346      1349      1349      1350      1349      1351      1349      1352
      1352      1353      1352      1354      1352      1355      1355      1356
      1355      1357      1355      1358      1358      1359      1358      1360
      1358      1361      1361      1362      1361      1363      1361      1364
      1364      1365      1364      1366      1364      1367      1367      1368
      1367      1369      1367      1370      1370      1371      1370      1372
      1370      1373      1373      1374      1373      1375      1373      1376
      1376      1377      1376      1378      1376      1379      1379      1380
      1379      1381      1379      1382      1382      1383      1382      1384
      1382      1385      1385      1386      1385      1387      1385      1388
      1388      1389      1388      1390      1388      1391      1391      1392
      1391      1393      1391      1394      1394      1395      1394      1396
      1394      1397      1397      1398      1397      1399      1397      1400
      1400      1401      1400      1402      1400      1403      1403      1404
      1403      1405      1403      1406      1406      1407      1406      1408
      1406      1409      1409      1410      1409      1411      1409      1412
      1412      1413      1412      1414      1412      1415      1415      1416
      1415      1417      1415      1418      1418      1419      1418      1420
      1418      1421      1421      1422      1421      1423      1421      1424
      1424      1425      1424      1426      1424      1427      1427      1428
      1427      1429      1427      1430      1430      1431      1430      1432
      1430      1433      1433      1434      1433      1435      1433      1436
      1436      1437      1436      1438      1436      1439      1439      1440
      1439      1441      1439      1442      1442      1443      1442      1444
      1442      1445      1445      1447      1445      1448      1446      1445
      1449      1450      1449      1452      1449      1453      1451      1449
      1453      1454      1453      1455      1453      1456      1456      1457
      1456      1458      1456      1459      1459      1460      1459      1461
      1459      1462      1462      1463      1462      1464      1462      1465
      1465      1466      1465      1467      1465      1468      1468      1469
      1468      1470      1468      1471      1471      1472      1471      1473
      1471      1474      1474      1475      1474      1476      1474      1477
      1477      1478      1477      1479      1477      1480      1480      1481
      1480      1482      1480      1483      1483      1484      1483      1485
      1483      1486      1486      1487      1486      1488      1486      1489
      1489      1490      1489      1491      1489      1492      1492      1493
      1492      1494      1492      1495      1495      1496      1495      1497
      1495      1498      1498      1499      1498      1500      1498      1501
      1501      1502      1501      1503      1501      1504      1504      1505
      1504      1506      1504      1507      1507      1508      1507      1509
      1507      1510      1510      1511      1510      1512      1510      1513
      1513      1514      1513      1515      1513      1516      1516      1517
      1516      1518      1516      1519      1519      1520      1519      1521
      1519      1522      1522      1523      1522      1524      1522      1525
      1525      1526      1525      1527      1525      1528      1528      1529
      1528      1530      1528      1531      1531      1532      1531      1533
      1531      1534      1534      1535      1534      1536      1534      1537
      1537      1538      1537      1539      1537      1540      1540      1541
      1540      1542      1540      1543      1543      1544      1543      1545
      1543      1546      1546      1547      1546      1548      1546      1549
      1549      1550      1549      1551      1549      1552      1552      1553
      1552      1554      1552      1555      1555      1556      1555      1557
      1555      1558      1558      1559      1558      1560      1558      1561
      1561      1562      1561      1563      1561      1564      1564      1565
      1564      1566      1564      1567      1567      1568      1567      1569
      1567      1570      1570      1571      1570      1572      1570      1573
      1573      1574      1573      1575      1573      1576      1576      1577
      1576      1578      1576      1579      1579      1580      1579      1581
      1579      1582      1582      1583      1582      1584      1582      1585
      1585      1586      1585      1587      1585      1588      1588      1589
      1588      1590      1588      1591      1591      1592      1591      1593
      1591      1594      1594      1595      1594      1596      1594      1597
      1597      1598      1597      1599      1597      1600      1600      1601
      1600      1602      1600      1603      1603      1604      1603      1605
      1603      1606      1606      1607      1606      1608      1606      1609
      1609      1610      1609      1611      1609      1612      1612      1613
      1612      1614      1612      1615      1615      1616      1615      1617
      1615      1618      1618      1619      1618      1620      1618      1621
      1621      1622      1621      1623      1621      1624      1624      1625
      1624      1626      1624      1627      1627      1628      1627      1629
      1627      1630      1630      1631      1630      1632      1630      1633
      1633      1634      1633      1635      1633      1636      1636      1637
      1636      1638      1636      1639      1639      1640      1639      1641
      1639      1642      1642      1643      1642      1644      1642      1645
      1645      1646      1645      1647      1645      1648      1648      1649
      1648      1650      1648      1651      1651      1652      1651      1653
      1651      1654      1654      1655      1654      1656      1654      1657
      1657      1658      1657      1659      1657      1660      1660      1661
      1660      1662      1660      1663      1663      1664      1663      1665
      1663      1666      1666      1667      1666      1668      1666      1669
      1669      1670      1669      1671      1669      1672      1672      1673
      1672      1674      1672      1675      1675      1676      1675      1677
      1675      1678      1678      1679      1678      1680      1678      1681
      1681      1682      1681      1683      1681      1684      1684      1685
      1684      1686      1684      1687      1687      1688      1687      1689
      1687      1690      1690      1691      1690      1692      1690      1693
      1693      1694      1693      1695      1693      1696      1696      1697
      1696      1698      1696      1699      1699      1700      1699      1701
      1699      1702      1702      1703      1702      1704      1702      1705
      1705      1706      1705      1707      1705      1708      1708      1709
      1708      1710      1708      1711      1711      1712      1711      1713
      1711      1714      1714      1715      1714      1716      1714      1717
      1717      1718      1717      1719      1717      1720      1720      1721
      1720      1722      1720      1723      1723      1724      1723      1725
      1723      1726      1726      1727      1726      1728      1726      1729
      1729      1730      1729      1731      1729      1732      1732      1733
      1732      1734      1732      1735      1735      1736      1735      1737
      1735      1738      1738      1739      1738      1740      1738      1741
      1741      1742      1741      1743      1741      1744      1744      1745
      1744      1746      1744      1747      1747      1748      1747      1749
      1747      1750      1750      1751      1750      1752      1750      1753
      1753      1754      1753      1755      1753      1756      1756      1757
      1756      1758      1756      1759      1759      1760      1759      1761
      1759      1762      1762      1763      1762      1764      1762      1765
      1765      1766      1765      1767      1765      1768      1768      1769
      1768      1770      1768      1771      1771      1772      1771      1773
      1771      1774      1774      1775      1774      1776      1774      1777
      1777      1778      1777      1779      1777      1780      1780      1781
      1780      1782      1780      1783      1783      1784      1783      1785
      1783      1786      1786      1787      1786      1788      1786      1789
      1789      1790      1789      1791      1789      1792      1792      1793
      1792      1794      1792      1795      1795      1796      1795      1797
      1795      1798      1798      1799      1798      1800      1798      1801
      1801      1802      1801      1803      1801      1804      1804      1805
      1804      1806      1804      1807      1807      1809      1807      1810
      1808      1807      1811      1812      1811      1814      1811      1815
      1813      1811      1815      1816      1815      1817      1815      1818
      1818      1819      1818      1820      1818      1821      1821      1822
      1821      1823      1821      1824      1824      1825      1824      1826
      1824      1827      1827      1828      1827      1829      1827      1830
      1830      1831      1830      1832      1830      1833      1833      1834
      1833      1835      1833      1836      1836      1837      1836      1838
      1836      1839      1839      1840      1839      1841      1839      1842
      1842      1843      1842      1844      1842      1845      1845      1846
      1845      1847      1845      1848      1848      1849      1848      1850
      1848      1851      1851      1852      1851      1853      1851      1854
      1854      1855      1854      1856      1854      1857      1857      1858
      1857      1859      1857      1860      1860      1861      1860      1862
      1860      1863      1863      1864      1863      1865      1863      1866
      1866      1867      1866      1868      1866      1869      1869      1870
      1869      1871      1869      1872      1872      1873      1872      1874
      1872      1875      1875      1876      1875      1877      1875      1878
      1878      1879      1878      1880      1878      1881      1881      1882
      1881      1883      1881      1884      1884      1885      1884      1886
      1884      1887      1887      1888      1887      1889      1887      1890
      1890      1891      1890      1892      1890      1893      1893      1894
      1893      1895      1893      1896      1896      1897      1896      1898
      1896      1899      1899      1900      1899      1901      1899      1902
      1902      1903      1902      1904      1902      1905      1905      1906
      1905      1907      1905      1908      1908      1909      1908      1910
      1908      1911      1911      1912      1911      1913      1911      1914
      1914      1915      1914      1916      1914      1917      1917      1918
      1917      1919      1917      1920      1920      1921      1920      1922
      1920      1923      1923      1924      1923      1925      1923      1926
      1926      1927      1926      1928      1926      1929      1929      1930
      1929      1931      1929      1932      1932      1933      1932      1934
      1932      1935      1935      1936      1935      1937      1935      1938
      1938      1939      1938      1940      1938      1941      1941      1942
      1941      1943      1941      1944      1944      1945      1944      1946
      1944      1947      1947      1948      1947      1949      1947      1950
      1950      1951      1950      1952      1950      1953      1953      1954
      1953      1955      1953      1956      1956      1957      1956      1958
      1956      1959      1959      1960      1959      1961      1959      1962
      1962      1963      1962      1964      1962      1965      1965      1966
      1965      1967      1965      1968      1968      1969      1968      1970
      1968      1971      1971      1972      1971      1973      1971      1974
      1974      1975      1974      1976      1974      1977      1977      1978
      1977      1979      1977      1980      1980      1981      1980      1982
      1980      1983      1983      1984      1983      1985      1983      1986
      1986      1987      1986      1988      1986      1989      1989      1990
      1989      1991      1989      1992      1992      1993      1992      1994
      1992      1995      1995      1996      1995      1997      1995      1998
      1998      1999      1998      2000      1998      2001      2001      2002
      2001      2003      2001      2004      2004      2005      2004      2006
      2004      2007      2007      2008      2007      2009      2007      2010
      2010      2011      2010      2012      2010      2013      2013      2014
      2013      2015      2013      2016      2016      2017      2016      2018
      2016      2019      2019      2020      2019      2021      2019      2022
      2022      2023      2022      2024      2022      2025      2025      2026
      2025      2027      2025      2028      2028      2029      2028      2030
      2028      2031      2031      2032      2031      2033      2031      2034
      2034      2035      2034      2036      2034      2037      2037      2038
      2037      2039      2037      2040      2040      2041      2040      2042
      2040      2043      2043      2044      2043      2045      2043      2046
      2046      2047      2046      2048      2046      2049      2049      2050
      2049      2051      2049      2052      2052      2053      2052      2054
      2052      2055      2055      2056      2055      2057      2055      2058
      2058      2059      2058      2060      2058      2061      2061      2062
      2061      2063      2061      2064      2064      2065      2064      2066
      2064      2067      2067      2068      2067      2069      2067      2070
      2070      2071      2070      2072      2070      2073      2073      2074
      2073      2075      2073      2076      2076      2077      2076      2078
      2076      2079      2079      2080      2079      2081      2079      2082
      2082      2083      2082      2084      2082      2085      2085      2086
      2085      2087      2085      2088      2088      2089      2088      2090
      2088      2091      2091      2092      2091      2093      2091      2094
      2094      2095      2094      2096      2094      2097      2097      2098
      2097      2099      2097      2100      2100      2101      2100      2102
      2100      2103      2103      2104      2103      2105      2103      2106
      2106      2107      2106      2108      2106      2109      2109      2110
      2109      2111      2109      2112      2112      2113      2112      2114
      2112      2115      2115      2116      2115      2117      2115      2118
      2118      2119      2118      2120      2118      2121      2121      2122
      2121      2123      2121      2124      2124      2125      2124      2126
      2124      2127      2127      2128      2127      2129      2127      2130
      2130      2131      2130      2132      2130      2133      2133      2134
      2133      2135      2133      2136      2136      2137      2136      2138
      2136      2139      2139      2140      2139      2141      2139      2142
      2142      2143      2142      2144      2142      2145      2145      2146
      2145      2147      2145      2148      2148      2149      2148      2150
      2148      2151      2151      2152      2151      2153      2151      2154
      2154      2155      2154      2156      2154      2157      2157      2158
      2157      2159      2157      2160      2160      2161      2160      2162
      2160      2163      2163      2164      2163      2165      2163      2166
      2166      2167      2166      2168      2166      2169      2169      2171
      2169      2172      2170      2169      2173      2174      2173      2176
      2173      2177      2175      2173      2177      2178      2177      2179
      2177      2180      2180      2181      2180      2182      2180      2183
      2183      2184      2183      2185      2183      2186      2186      2187
      2186      2188      2186      2189      2189      2190      2189      2191
      2189      2192      2192      2193      2192      2194      2192      2195
      2195      2196      2195      2197      2195      2198      2198      2199
      2198      2200      2198      2201      2201      2202      2201      2203
      2201      2204      2204      2205      2204      2206      2204      2207
      2207      2208      2207      2209      2207      2210      2210      2211
      2210      2212      2210      2213      2213      2214      2213      2215
      2213      2216      2216      2217      2216      2218      2216      2219
      2219      2220      2219      2221      2219      2222      2222      2223
      2222      2224      2222      2225      2225      2226      2225      2227
      2225      2228      2228      2229      2228      2230      2228      2231
      2231      2232      2231      2233      2231      2234      2234      2235
      2234      2236      2234      2237      2237      2238      2237      2239
      2237      2240      2240      2241      2240      2242      2240      2243
      2243      2244      2243      2245      2243      2246      2246      2247
      2246      2248      2246      2249      2249      2250      2249      2251
      2249      2252      2252      2253      2252      2254      2252      2255
      2255      2256      2255      2257      2255      2258      2258      2259
      2258      2260      2258      2261      2261      2262      2261      2263
      2261      2264      2264      2265      2264      2266      2264      2267
      2267      2268      2267      2269      2267      2270      2270      2271
      2270      2272      2270      2273      2273      2274      2273      2275
      2273      2276      2276      2277      2276      2278      2276      2279
      2279      2280      2279      2281      2279      2282      2282      2283
      2282      2284      2282      2285      2285      2286      2285      2287
      2285      2288      2288      2289      2288      2290      2288      2291
      2291      2292      2291      2293      2291      2294      2294      2295
      2294      2296      2294      2297      2297      2298      2297      2299
      2297      2300      2300      2301      2300      2302      2300      2303
      2303      2304      2303      2305      2303      2306      2306      2307
      2306      2308      2306      2309      2309      2310      2309      2311
      2309      2312      2312      2313      2312      2314      2312      2315
      2315      2316      2315      2317      2315      2318      2318      2319
      2318      2320      2318      2321      2321      2322      2321      2323
      2321      2324      2324      2325      2324      2326      2324      2327
      2327      2328      2327      2329      2327      2330      2330      2331
      2330      2332      2330      2333      2333      2334      2333      2335
      2333      2336      2336      2337      2336      2338      2336      2339
      2339      2340      2339      2341      2339      2342      2342      2343
      2342      2344      2342      2345      2345      2346      2345      2347
      2345      2348      2348      2349      2348      2350      2348      2351
      2351      2352      2351      2353      2351      2354      2354      2355
      2354      2356      2354      2357      2357      2358      2357      2359
      2357      2360      2360      2361      2360      2362      2360      2363
      2363      2364      2363      2365      2363      2366      2366      2367
      2366      2368      2366      2369      2369      2370      2369      2371
      2369      2372      2372      2373      2372      2374      2372      2375
      2375      2376      2375      2377      2375      2378      2378      2379
      2378      2380      2378      2381      2381      2382      2381      2383
      2381      2384      2384      2385      2384      2386      2384      2387
      2387      2388      2387      2389      2387      2390      2390      2391
      2390      2392      2390      2393      2393      2394      2393      2395
      2393      2396      2396      2397      2396      2398      2396      2399
      2399      2400      2399      2401      2399      2402      2402      2403
      2402      2404      2402      2405      2405      2406      2405      2407
      2405      2408      2408      2409      2408      2410      2408      2411
      2411      2412      2411      2413      2411      2414      2414      2415
      2414      2416      2414      2417      2417      2418      2417      2419
      2417      2420      2420      2421      2420      2422      2420      2423
      2423      2424      2423      2425      2423      2426      2426      2427
      2426      2428      2426      2429      2429      2430      2429      2431
      2429      2432      2432      2433      2432      2434      2432      2435
      2435      2436      2435      2437      2435      2438      2438      2439
      2438      2440      2438      2441      2441      2442      2441      2443
      2441      2444      2444      2445      2444      2446      2444      2447
      2447      2448      2447      2449      2447      2450      2450      2451
      2450      2452      2450      2453      2453      2454      2453      2455
      2453      2456      2456      2457      2456      2458      2456      2459
      2459      2460      2459      2461      2459      2462      2462      2463
      2462      2464      2462      2465      2465      2466      2465      2467
      2465      2468      2468      2469      2468      2470      2468      2471
      2471      2472      2471      2473      2471      2474      2474      2475
      2474      2476      2474      2477      2477      2478      2477      2479
      2477      2480      2480      2481      2480      2482      2480      2483
      2483      2484      2483      2485      2483      2486      2486      2487
      2486      2488      2486      2489      2489      2490      2489      2491
      2489      2492      2492      2493      2492      2494      2492      2495
      2495      2496      2495      2497      2495      2498      2498      2499
      2498      2500      2498      2501      2501      2502      2501      2503
      2501      2504      2504      2505      2504      2506      2504      2507
      2507      2508      2507      2509      2507      2510      2510      2511
      2510      2512      2510      2513      2513      2514      2513      2515
      2513      2516      2516      2517      2516      2518      2516      2519
      2519      2520      2519      2521      2519      2522      2522      2523
      2522      2524      2522      2525      2525      2526      2525      2527
      2525      2528      2528      2529      2528      2530      2528      2531
      2531      2533      2531      2534      2532      2531      2535      2536
      2535      2538      2535      2539      2537      2535      2539      2540
      2539      2541      2539      2542      2542      2543      2542      2544
      2542      2545      2545      2546      2545      2547      2545      2548
      2548      2549      2548      2550      2548      2551      2551      2552
      2551      2553      2551      2554      2554      2555      2554      2556
      2554      2557      2557      2558      2557      2559      2557      2560
      2560      2561      2560      2562      2560      2563      2563      2564
      2563      2565      2563      2566      2566      2567      2566      2568
      2566      2569      2569      2570      2569      2571      2569      2572
      2572      2573      2572      2574      2572      2575      2575      2576
      2575      2577      2575      2578      2578      2579      2578      2580
      2578      2581      2581      2582      2581      2583      2581      2584
      2584      2585      2584      2586      2584      2587      2587      2588
      2587      2589      2587      2590      2590      2591      2590      2592
      2590      2593      2593      2594      2593      2595      2593      2596
      2596      2597      2596      2598      2596      2599      2599      2600
      2599      2601      2599      2602      2602      2603      2602      2604
      2602      2605      2605      2606      2605      2607      2605      2608
      2608      2609      2608      2610      2608      2611      2611      2612
      2611      2613      2611      2614      2614      2615      2614      2616
      2614      2617      2617      2618      2617      2619      2617      2620
      2620      2621      2620      2622      2620      2623      2623      2624
      2623      2625      2623      2626      2626      2627      2626      2628
      2626      2629      2629      2630      2629      2631      2629      2632
      2632      2633      2632      2634      2632      2635      2635      2636
      2635      2637      2635      2638      2638      2639      2638      2640
      2638      2641      2641      2642      2641      2643      2641      2644
      2644      2645      2644      2646      2644      2647      2647      2648
      2647      2649      2647      2650      2650      2651      2650      2652
      2650      2653      2653      2654      2653      2655      2653      2656
      2656      2657      2656      2658      2656      2659      2659      2660
      2659      2661      2659      2662      2662      2663      2662      2664
      2662      2665      2665      2666      2665      2667      2665      2668
      2668      2669      2668      2670      2668      2671      2671      2672
      2671      2673      2671      2674      2674      2675      2674      2676
      2674      2677      2677      2678      2677      2679      2677      2680
      2680      2681      2680      2682      2680      2683      2683      2684
      2683      2685      2683      2686      2686      2687      2686      2688
      2686      2689      2689      2690      2689      2691      2689      2692
      2692      2693      2692      2694      2692      2695      2695      2696
      2695      2697      2695      2698      2698      2699      2698      2700
      2698      2701      2701      2702      2701      2703      2701      2704
      2704      2705      2704      2706      2704      2707      2707      2708
      2707      2709      2707      2710      2710      2711      2710      2712
      2710      2713      2713      2714      2713      2715      2713      2716
      2716      2717      2716      2718      2716      2719      2719      2720
      2719      2721      2719      2722      2722      2723      2722      2724
      2722      2725      2725      2726      2725      2727      2725      2728
      2728      2729      2728      2730      2728      2731      2731      2732
      2731      2733      2731      2734      2734      2735      2734      2736
      2734      2737      2737      2738      2737      2739      2737      2740
      2740      2741      2740      2742      2740      2743      2743      2744
      2743      2745      2743      2746      2746      2747      2746      2748
      2746      2749      2749      2750      2749      2751      2749      2752
      2752      2753      2752      2754      2752      2755      2755      2756
      2755      2757      2755      2758      2758      2759      2758      2760
      2758      2761      2761      2762      2761      2763      2761      2764
      2764      2765      2764      2766      2764      2767      2767      2768
      2767      2769      2767      2770      2770      2771      2770      2772
      2770      2773      2773      2774      2773      2775      2773      2776
      2776      2777      2776      2778      2776      2779      2779      2780
      2779      2781      2779      2782      2782      2783      2782      2784
      2782      2785      2785      2786      2785      2787      2785      2788
      2788      2789      2788      2790      2788      2791      2791      2792
      2791      2793      2791      2794      2794      2795      2794      2796
      2794      2797      2797      2798      2797      2799      2797      2800
      2800      2801      2800      2802      2800      2803      2803      2804
      2803      2805      2803      2806      2806      2807      2806      2808
      2806      2809      2809      2810      2809      2811      2809      2812
      2812      2813      2812      2814      2812      2815      2815      2816
      2815      2817      2815      2818      2818      2819      2818      2820
      2818      2821      2821      2822      2821      2823      2821      2824
      2824      2825      2824      2826      2824      2827      2827      2828
      2827      2829      2827      2830      2830      2831      2830      2832
      2830      2833      2833      2834      2833      2835      2833      2836
      2836      2837      2836      2838      2836      2839      2839      2840
      2839      2841      2839      2842      2842      2843      2842      2844
      2842      2845      2845      2846      2845      2847      2845      2848
      2848      2849      2848      2850      2848      2851      2851      2852
      2851      2853      2851      2854      2854      2855      2854      2856
      2854      2857      2857      2858      2857      2859      2857      2860
      2860      2861      2860      2862      2860      2863      2863      2864
      2863      2865      2863      2866      2866      2867      2866      2868
      2866      2869      2869      2870      2869      2871      2869      2872
      2872      2873      2872      2874      2872      2875      2875      2876
      2875      2877      2875      2878      2878      2879      2878      2880
      2878      2881      2881      2882      2881      2883      2881      2884
      2884      2885      2884      2886      2884      2887      2887      2888
      2887      2889      2887      2890      2890      2891      2890      2892
      2890      2893      2893      2895      2893      2896      2894      2893
      2897      2898      2897      2900      2897      2901      2899      2897
      2901      2902      2901      2903      2901      2904      2904      2905
      2904      2906      2904      2907      2907      2908      2907      2909
      2907      2910      2910      2911      2910      2912      2910      2913
      2913      2914      2913      2915      2913      2916      2916      2917
      2916      2918      2916      2919      2919      2920      2919      2921
      2919      2922      2922      2923      2922      2924      2922      2925
      2925      2926      2925      2927      2925      2928      2928      2929
      2928      2930      2928      2931      2931      2932      2931      2933
      2931      2934      2934      2935      2934      2936      2934      2937
      2937      2938      2937      2939      2937      2940      2940      2941
      2940      2942      2940      2943      2943      2944      2943      2945
      2943      2946      2946      2947      2946      2948      2946      2949
      2949      2950      2949      2951      2949      2952      2952      2953
      2952      2954      2952      2955      2955      2956      2955      2957
      2955      2958      2958      2959      2958      2960      2958      2961
      2961      2962      2961      2963      2961      2964      2964      2965
      2964      2966      2964      2967      2967      2968      2967      2969
      2967      2970      2970      2971      2970      2972      2970      2973
      2973      2974      2973      2975      2973      2976      2976      2977
      2976      2978      2976      2979      2979      2980      2979      2981
      2979      2982      2982      2983      2982      2984      2982      2985
      2985      2986      2985      2987      2985      2988      2988      2989
      2988      2990      2988      2991      2991      2992      2991      2993
      2991      2994      2994      2995      2994      2996      2994      2997
      2997      2998      2997      2999      2997      3000      3000      3001
      3000      3002      3000      3003      3003      3004      3003      3005
      3003      3006      3006      3007      3006      3008      3006      3009
      3009      3010      3009      3011      3009      3012      3012      3013
      3012      3014      3012      3015      3015      3016      3015      3017
      3015      3018      3018      3019      3018      3020      3018      3021
      3021      3022      3021      3023      3021      3024      3024      3025
      3024      3026      3024      3027      3027      3028      3027      3029
      3027      3030      3030      3031      3030      3032      3030      3033
      3033      3034      3033      3035      3033      3036      3036      3037
      3036      3038      3036      3039      3039      3040      3039      3041
      3039      3042      3042      3043      3042      3044      3042      3045
      3045      3046      3045      3047      3045      3048      3048      3049
      3048      3050      3048      3051      3051      3052      3051      3053
      3051      3054      3054      3055      3054      3056      3054      3057
      3057      3058      3057      3059      3057      3060      3060      3061
      3060      3062      3060      3063      3063      3064      3063      3065
      3063      3066      3066      3067      3066      3068      3066      3069
      3069      3070      3069      3071      3069      3072      3072      3073
      3072      3074      3072      3075      3075      3076      3075      3077
      3075      3078      3078      3079      3078      3080      3078      3081
      3081      3082      3081      3083      3081      3084      3084      3085
      3084      3086      3084      3087      3087      3088      3087      3089
      3087      3090      3090      3091      3090      3092      3090      3093
      3093      3094      3093      3095      3093      3096      3096      3097
      3096      3098      3096      3099      3099      3100      3099      3101
      3099      3102      3102      3103      3102      3104      3102      3105
      3105      3106      3105      3107      3105      3108      3108      3109
      3108      3110      3108      3111      3111      3112      3111      3113
      3111      3114      3114      3115      3114      3116      3114      3117
      3117      3118      3117      3119      3117      3120      3120      3121
      3120      3122      3120      3123      3123      3124      3123      3125
      3123      3126      3126      3127      3126      3128      3126      3129
      3129      3130      3129      3131      3129      3132      3132      3133
      3132      3134      3132      3135      3135      3136      3135      3137
      3135      3138      3138      3139      3138      3140      3138      3141
      3141      3142      3141      3143      3141      3144      3144      3145
      3144      3146      3144      3147      3147      3148      3147      3149
      3147      3150      3150      3151      3150      3152      3150      3153
      3153      3154      3153      3155      3153      3156      3156      3157
      3156      3158      3156      3159      3159      3160      3159      3161
      3159      3162      3162      3163      3162      3164      3162      3165
      3165      3166      3165      3167      3165      3168      3168      3169
      3168      3170      3168      3171      3171      3172      3171      3173
      3171      3174      3174      3175      3174      3176      3174      3177
      3177      3178      3177      3179      3177      3180      3180      3181
      3180      3182      3180      3183      3183      3184      3183      3185
      3183      3186      3186      3187      3186      3188      3186      3189
      3189      3190      3189      3191      3189      3192      3192      3193
      3192      3194      3192      3195      3195      3196      3195      3197
      3195      3198      3198      3199      3198      3200      3198      3201
      3201      3202      3201      3203      3201      3204      3204      3205
      3204      3206      3204      3207      3207      3208      3207      3209
      3207      3210      3210      3211      3210      3212      3210      3213
      3213      3214      3213      3215      3213      3216      3216      3217
      3216      3218      3216      3219      3219      3220      3219      3221
      3219      3222      3222      3223      3222      3224      3222      3225
      3225      3226      3225      3227      3225      3228      3228      3229
      3228      3230      3228      3231      3231      3232      3231      3233
      3231      3234      3234      3235      3234      3236      3234      3237
      3237      3238      3237      3239      3237      3240      3240      3241
      3240      3242      3240      3243      3243      3244      3243      3245
      3243      3246      3246      3247      3246      3248      3246      3249
      3249      3250      3249      3251      3249      3252      3252      3253
      3252      3254      3252      3255      3255      3257      3255      3258
      3256      3255      3259      3260      3259      3262      3259      3263
      3261      3259      3263      3264      3263      3265      3263      3266
      3266      3267      3266      3268      3266      3269      3269      3270
      3269      3271      3269      3272      3272      3273      3272      3274
      3272      3275      3275      3276      3275      3277      3275      3278
      3278      3279      3278      3280      3278      3281      3281      3282
      3281      3283      3281      3284      3284      3285      3284      3286
      3284      3287      3287      3288      3287      3289      3287      3290
      3290      3291      3290      3292      3290      3293      3293      3294
      3293      3295      3293      3296      3296      3297      3296      3298
      3296      3299      3299      3300      3299      3301      3299      3302
      3302      3303      3302      3304      3302      3305      3305      3306
      3305      3307      3305      3308      3308      3309      3308      3310
      3308      3311      3311      3312      3311      3313      3311      3314
      3314      3315      3314      3316      3314      3317      3317      3318
      3317      3319      3317      3320      3320      3321      3320      3322
      3320      3323      3323      3324      3323      3325      3323      3326
      3326      3327      3326      3328      3326      3329      3329      3330
      3329      3331      3329      3332      3332      3333      3332      3334
      3332      3335      3335      3336      3335      3337      3335      3338
      3338      3339      3338      3340      3338      3341      3341      3342
      3341      3343      3341      3344      3344      3345      3344      3346
      3344      3347      3347      3348      3347      3349      3347      3350
      3350      3351      3350      3352      3350      3353      3353      3354
      3353      3355      3353      3356      3356      3357      3356      3358
      3356      3359      3359      3360      3359      3361      3359      3362
      3362      3363      3362      3364      3362      3365      3365      3366
      3365      3367      3365      3368      3368      3369      3368      3370
      3368      3371      3371      3372      3371      3373      3371      3374
      3374      3375      3374      3376      3374      3377      3377      3378
      3377      3379      3377      3380      3380      3381      3380      3382
      3380      3383      3383      3384      3383      3385      3383      3386
      3386      3387      3386      3388      3386      3389      3389      3390
      3389      3391      3389      3392      3392      3393      3392      3394
      3392      3395      3395      3396      3395      3397      3395      3398
      3398      3399      3398      3400      3398      3401      3401      3402
      3401      3403      3401      3404      3404      3405      3404      3406
      3404      3407      3407      3408      3407      3409      3407      3410
      3410      3411      3410      3412      3410      3413      3413      3414
      3413      3415      3413      3416      3416      3417      3416      3418
      3416      3419      3419      3420      3419      3421      3419      3422
      3422      3423      3422      3424      3422      3425      3425      3426
      3425      3427      3425      3428      3428      3429      3428      3430
      3428      3431      3431      3432      3431      3433      3431      3434
      3434      3435      3434      3436      3434      3437      3437      3438
      3437      3439      3437      3440      3440      3441      3440      3442
      3440      3443      3443      3444      3443      3445      3443      3446
      3446      3447      3446      3448      3446      3449      3449      3450
      3449      3451      3449      3452      3452      3453      3452      3454
      3452      3455      3455      3456      3455      3457      3455      3458
      3458      3459      3458      3460      3458      3461      3461      3462
      3461      3463      3461      3464      3464      3465      3464      3466
      3464      3467      3467      3468      3467      3469      3467      3470
      3470      3471      3470      3472      3470      3473      3473      3474
      3473      3475      3473      3476      3476      3477      3476      3478
      3476      3479      3479      3480      3479      3481      3479      3482
      3482      3483      3482      3484      3482      3485      3485      3486
      3485      3487      3485      3488      3488      3489      3488      3490
      3488      3491      3491      3492      3491      3493      3491      3494
      3494      3495      3494      3496      3494      3497      3497      3498
      3497      3499      3497      3500      3500      3501      3500      3502
      3500      3503      3503      3504      3503      3505      3503      3506
      3506      3507      3506      3508      3506      3509      3509      3510
      3509      3511      3509      3512      3512      3513      3512      3514
      3512      3515      3515      3516      3515      3517      3515      3518
      3518      3519      3518      3520      3518      3521      3521      3522
      3521      3523      3521      3524      3524      3525      3524      3526
      3524      3527      3527      3528      3527      3529      3527      3530
      3530      3531      3530      3532      3530      3533      3533      3534
      3533      3535      3533      3536      3536      3537      3536      3538
      3536      3539      3539      3540      3539      3541      3539      3542
      3542      3543      3542      3544      3542      3545      3545      3546
      3545      3547      3545      3548      3548      3549      3548      3550
      3548      3551      3551      3552      3551      3553      3551      3554
      3554      3555      3554      3556      3554      3557      3557      3558
      3557      3559      3557      3560      3560      3561      3560      3562
      3560      3563      3563      3564      3563      3565      3563      3566
      3566      3567      3566      3568      3566      3569      3569      3570
      3569      3571      3569      3572      3572      3573      3572      3574
      3572      3575      3575      3576      3575      3577      3575      3578
      3578      3579      3578      3580      3578      3581      3581      3582
      3581      3583      3581      3584      3584      3585      3584      3586
      3584      3587      3587      3588      3587      3589      3587      3590
      3590      3591      3590      3592      3590      3593      3593      3594
      3593      3595      3593      3596      3596      3597      3596      3598
      3596      3599      3599      3600      3599      3601      3599      3602
      3602      3603      3602      3604      3602      3605      3605      3606
      3605      3607      3605      3608      3608      3609      3608      3610
      3608      3611      3611      3612      3611      3613      3611      3614
      3614      3615      3614      3616      3614      3617      3617      3619
      3617      3620      3618      3617      3621      3622      3621      3624
      3621      3625      3623      3621      3625      3626      3625      3627
      3625      3628      3628      3629      3628      3630      3628      3631
      3631      3632      3631      3633      3631      3634      3634      3635
      3634      3636      3634      3637      3637      3638      3637      3639
      3637      3640      3640      3641      3640      3642      3640      3643
      3643      3644      3643      3645      3643      3646      3646      3647
      3646      3648      3646      3649      3649      3650      3649      3651
      3649      3652      3652      3653      3652      3654      3652      3655
      3655      3656      3655      3657      3655      3658      3658      3659
      3658      3660      3658      3661      3661      3662      3661      3663
      3661      3664      3664      3665      3664      3666      3664      3667
      3667      3668      3667      3669      3667      3670      3670      3671
      3670      3672      3670      3673      3673      3674      3673      3675
      3673      3676      3676      3677      3676      3678      3676      3679
      3679      3680      3679      3681      3679      3682      3682      3683
      3682      3684      3682      3685      3685      3686      3685      3687
      3685      3688      3688      3689      3688      3690      3688      3691
      3691      3692      3691      3693      3691      3694      3694      3695
      3694      3696      3694      3697      3697      3698      3697      3699
      3697      3700      3700      3701      3700      3702      3700      3703
      3703      3704      3703      3705      3703      3706      3706      3707
      3706      3708      3706      3709      3709      3710      3709      3711
      3709      3712      3712      3713      3712      3714      3712      3715
      3715      3716      3715      3717      3715      3718      3718      3719
      3718      3720      3718      3721      3721      3722      3721      3723
      3721      3724      3724      3725      3724      3726      3724      3727
      3727      3728      3727      3729      3727      3730      3730      3731
      3730      3732      3730      3733      3733      3734      3733      3735
      3733      3736      3736      3737      3736      3738      3736      3739
      3739      3740      3739      3741      3739      3742      3742      3743
      3742      3744      3742      3745      3745      3746      3745      3747
      3745      3748      3748      3749      3748      3750      3748      3751
      3751      3752      3751      3753      3751      3754      3754      3755
      3754      3756      3754      3757      3757      3758      3757      3759
      3757      3760      3760      3761      3760      3762      3760      3763
      3763      3764      3763      3765      3763      3766      3766      3767
      3766      3768      3766      3769      3769      3770      3769      3771
      3769      3772      3772      3773      3772      3774      3772      3775
      3775      3776      3775      3777      3775      3778      3778      3779
      3778      3780      3778      3781      3781      3782      3781      3783
      3781      3784      3784      3785      3784      3786      3784      3787
      3787      3788      3787      3789      3787      3790      3790      3791
      3790      3792      3790      3793      3793      3794      3793      3795
      3793      3796      3796      3797      3796      3798      3796      3799
      3799      3800      3799      3801      3799      3802      3802      3803
      3802      3804      3802      3805      3805      3806      3805      3807
      3805      3808      3808      3809      3808      3810      3808      3811
      3811      3812      3811      3813      3811      3814      3814      3815
      3814      3816      3814      3817      3817      3818      3817      3819
      3817      3820      3820      3821      3820      3822      3820      3823
      3823      3824      3823      3825      3823      3826      3826      3827
      3826      3828      3826      3829      3829      3830      3829      3831
      3829      3832      3832      3833      3832      3834      3832      3835
      3835      3836      3835      3837      3835      3838      3838      3839
      3838      3840      3838      3841      3841      3842      3841      3843
      3841      3844      3844      3845      3844      3846      3844      3847
      3847      3848      3847      3849      3847      3850      3850      3851
      3850      3852      3850      3853      3853      3854      3853      3855
      3853      3856      3856      3857      3856      3858      3856      3859
      3859      3860      3859      3861      3859      3862      3862      3863
      3862      3864      3862      3865      3865      3866      3865      3867
      3865      3868      3868      3869      3868      3870      3868      3871
      3871      3872      3871      3873      3871      3874      3874      3875
      3874      3876      3874      3877      3877      3878      3877      3879
      3877      3880      3880      3881      3880      3882      3880      3883
      3883      3884      3883      3885      3883      3886      3886      3887
      3886      3888      3886      3889      3889      3890      3889      3891
      3889      3892      3892      3893      3892      3894      3892      3895
      3895      3896      3895      3897      3895      3898      3898      3899
      3898      3900      3898      3901      3901      3902      3901      3903
      3901      3904      3904      3905      3904      3906      3904      3907
      3907      3908      3907      3909      3907      3910      3910      3911
      3910      3912      3910      3913      3913      3914      3913      3915
      3913      3916      3916      3917      3916      3918      3916      3919
      3919      3920      3919      3921      3919      3922      3922      3923
      3922      3924      3922      3925      3925      3926      3925      3927
      3925      3928      3928      3929      3928      3930      3928      3931
      3931      3932      3931      3933      3931      3934      3934      3935
      3934      3936      3934      3937      3937      3938      3937      3939
      3937      3940      3940      3941      3940      3942      3940      3943
      3943      3944      3943      3945      3943      3946      3946      3947
      3946      3948      3946      3949      3949      3950      3949      3951
      3949      3952      3952      3953      3952      3954      3952      3955
      3955      3956      3955      3957      3955      3958      3958      3959
      3958      3960      3958      3961      3961      3962      3961      3963
      3961      3964      3964      3965      3964      3966      3964      3967
      3967      3968      3967      3969      3967      3970      3970      3971
      3970      3972      3970      3973      3973      3974      3973      3975
      3973      3976      3976      3977      3976      3978      3976      3979
      3979      3981      3979      3982      3980      3979      3983      3984
      3983      3986      3983      3987      3985      3983      3987      3988
      3987      3989      3987      3990      3990      3991      3990      3992
      3990      3993      3993      3994      3993      3995      3993      3996
      3996      3997      3996      3998      3996      3999      3999      4000
      3999      4001      3999      4002      4002      4003      4002      4004
      4002      4005      4005      4006      4005      4007      4005      4008
      4008      4009      4008      4010      4008      4011      4011      4012
      4011      4013      4011      4014      4014      4015      4014      4016
      4014      4017      4017      4018      4017      4019      4017      4020
      4020      4021      4020      4022      4020      4023      4023      4024
      4023      4025      4023      4026      4026      4027      4026      4028
      4026      4029      4029      4030      4029      4031      4029      4032
      4032      4033      4032      4034      4032      4035      4035      4036
      4035      4037      4035      4038      4038      4039      4038      4040
      4038      4041      4041      4042      4041      4043      4041      4044
      4044      4045      4044      4046      4044      4047      4047      4048
      4047      4049      4047      4050      4050      4051      4050      4052
      4050      4053      4053      4054      4053      4055      4053      4056
      4056      4057      4056      4058      4056      4059      4059      4060
      4059      4061      4059      4062      4062      4063      4062      4064
      4062      4065      4065      4066      4065      4067      4065      4068
      4068      4069      4068      4070      4068      4071      4071      4072
      4071      4073      4071      4074      4074      4075      4074      4076
      4074      4077      4077      4078      4077      4079      4077      4080
      4080      4081      4080      4082      4080      4083      4083      4084
      4083      4085      4083      4086      4086      4087      4086      4088
      4086      4089      4089      4090      4089      4091      4089      4092
      4092      4093      4092      4094      4092      4095      4095      4096
      4095      4097      4095      4098      4098      4099      4098      4100
      4098      4101      4101      4102      4101      4103      4101      4104
      4104      4105      4104      4106      4104      4107      4107      4108
      4107      4109      4107      4110      4110      4111      4110      4112
      4110      4113      4113      4114      4113      4115      4113      4116
      4116      4117      4116      4118      4116      4119      4119      4120
      4119      4121      4119      4122      4122      4123      4122      4124
      4122      4125      4125      4126      4125      4127      4125      4128
      4128      4129      4128      4130      4128      4131      4131      4132
      4131      4133      4131      4134      4134      4135      4134      4136
      4134      4137      4137      4138      4137      4139      4137      4140
      4140      4141      4140      4142      4140      4143      4143      4144
      4143      4145      4143      4146      4146      4147      4146      4148
      4146      4149      4149      4150      4149      4151      4149      4152
      4152      4153      4152      4154      4152      4155      4155      4156
      4155      4157      4155      4158      4158      4159      4158      4160
      4158      4161      4161      4162      4161      4163      4161      4164
      4164      4165      4164      4166      4164      4167      4167      4168
      4167      4169      4167      4170      4170      4171      4170      4172
      4170      4173      4173      4174      4173      4175      4173      4176
      4176      4177      4176      4178      4176      4179      4179      4180
      4179      4181      4179      4182      4182      4183      4182      4184
      4182      4185      4185      4186      4185      4187      4185      4188
      4188      4189      4188      4190      4188      4191      4191      4192
      4191      4193      4191      4194      4194      4195      4194      4196
      4194      4197      4197      4198      4197      4199      4197      4200
      4200      4201      4200      4202      4200      4203      4203      4204
      4203      4205      4203      4206      4206      4207      4206      4208
      4206      4209      4209      4210      4209      4211      4209      4212
      4212      4213      4212      4214      4212      4215      4215      4216
      4215      4217      4215      4218      4218      4219      4218      4220
      4218      4221      4221      4222      4221      4223      4221      4224
      4224      4225      4224      4226      4224      4227      4227      4228
      4227      4229      4227      4230      4230      4231      4230      4232
      4230      4233      4233      4234      4233      4235      4233      4236
      4236      4237      4236      4238      4236      4239      4239      4240
      4239      4241      4239      4242      4242      4243      4242      4244
      4242      4245      4245      4246      4245      4247      4245      4248
      4248      4249      4248      4250      4248      4251      4251      4252
      4251      4253      4251      4254      4254      4255      4254      4256
      4254      4257      4257      4258      4257      4259      4257      4260
      4260      4261      4260      4262      4260      4263      4263      4264
      4263      4265      4263      4266      4266      4267      4266      4268
      4266      4269      4269      4270      4269      4271      4269      4272
      4272      4273      4272      4274      4272      4275      4275      4276
      4275      4277      4275      4278      4278      4279      4278      4280
      4278      4281      4281      4282      4281      4283      4281      4284
      4284      4285      4284      4286      4284      4287      4287      4288
      4287      4289      4287      4290      4290      4291      4290      4292
      4290      4293      4293      4294      4293      4295      4293      4296
      4296      4297      4296      4298      4296      4299      4299      4300
      4299      4301      4299      4302      4302      4303      4302      4304
      4302      4305      4305      4306      4305      4307      4305      4308
      4308      4309      4308      4310      4308      4311      4311      4312
      4311      4313      4311      4314      4314      4315      4314      4316
      4314      4317      4317      4318      4317      4319      4317      4320
      4320      4321      4320      4322      4320      4323      4323      4324
      4323      4325      4323      4326      4326      4327      4326      4328
      4326      4329      4329      4330      4329      4331      4329      4332
      4332      4333      4332      4334      4332      4335      4335      4336
      4335      4337      4335      4338      4338      4339      4338      4340
      4338      4341      4341      4343      4341      4344      4342      4341
      4345      4346      4345      4348      4345      4349      4347      4345
      4349      4350      4349      4351      4349      4352      4352      4353
      4352      4354      4352      4355      4355      4356      4355      4357
      4355      4358      4358      4359      4358      4360      4358      4361
      4361      4362      4361      4363      4361      4364      4364      4365
      4364      4366      4364      4367      4367      4368      4367      4369
      4367      4370      4370      4371      4370      4372      4370      4373
      4373      4374      4373      4375      4373      4376      4376      4377
      4376      4378      4376      4379      4379      4380      4379      4381
      4379      4382      4382      4383      4382      4384      4382      4385
      4385      4386      4385      4387      4385      4388      4388      4389
      4388      4390      4388      4391      4391      4392      4391      4393
      4391      4394      4394      4395      4394      4396      4394      4397
      4397      4398      4397      4399      4397      4400      4400      4401
      4400      4402      4400      4403      4403      4404      4403      4405
      4403      4406      4406      4407      4406      4408      4406      4409
      4409      4410      4409      4411      4409      4412      4412      4413
      4412      4414      4412      4415      4415      4416      4415      4417
      4415      4418      4418      4419      4418      4420      4418      4421
      4421      4422      4421      4423      4421      4424      4424      4425
      4424      4426      4424      4427      4427      4428      4427      4429
      4427      4430      4430      4431      4430      4432      4430      4433
      4433      4434      4433      4435      4433      4436      4436      4437
      4436      4438      4436      4439      4439      4440      4439      4441
      4439      4442      4442      4443      4442      4444      4442      4445
      4445      4446      4445      4447      4445      4448      4448      4449
      4448      4450      4448      4451      4451      4452      4451      4453
      4451      4454      4454      4455      4454      4456      4454      4457
      4457      4458      4457      4459      4457      4460      4460      4461
      4460      4462      4460      4463      4463      4464      4463      4465
      4463      4466      4466      4467      4466      4468      4466      4469
      4469      4470      4469      4471      4469      4472      4472      4473
      4472      4474      4472      4475      4475      4476      4475      4477
      4475      4478      4478      4479      4478      4480      4478      4481
      4481      4482      4481      4483      4481      4484      4484      4485
      4484      4486      4484      4487      4487      4488      4487      4489
      4487      4490      4490      4491      4490      4492      4490      4493
      4493      4494      4493      4495      4493      4496      4496      4497
      4496      4498      4496      4499      4499      4500      4499      4501
      4499      4502      4502      4503      4502      4504      4502      4505
      4505      4506      4505      4507      4505      4508      4508      4509
      4508      4510      4508      4511      4511      4512      4511      4513
      4511      4514      4514      4515      4514      4516      4514      4517
      4517      4518      4517      4519      4517      4520      4520      4521
      4520      4522      4520      4523      4523      4524      4523      4525
      4523      4526      4526      4527      4526      4528      4526      4529
      4529      4530      4529      4531      4529      4532      4532      4533
      4532      4534      4532      4535      4535      4536      4535      4537
      4535      4538      4538      4539      4538      4540      4538      4541
      4541      4542      4541      4543      4541      4544      4544      4545
      4544      4546      4544      4547      4547      4548      4547      4549
      4547      4550      4550      4551      4550      4552      4550      4553
      4553      4554      4553      4555      4553      4556      4556      4557
      4556      4558      4556      4559      4559      4560      4559      4561
      4559      4562      4562      4563      4562      4564      4562      4565
      4565      4566      4565      4567      4565      4568      4568      4569
      4568      4570      4568      4571      4571      4572      4571      4573
      4571      4574      4574      4575      4574      4576      4574      4577
      4577      4578      4577      4579      4577      4580      4580      4581
      4580      4582      4580      4583      4583      4584      4583      4585
      4583      4586      4586      4587      4586      4588      4586      4589
      4589      4590      4589      4591      4589      4592      4592      4593
      4592      4594      4592      4595      4595      4596      4595      4597
      4595      4598      4598      4599      4598      4600      4598      4601
      4601      4602      4601      4603      4601      4604      4604      4605
      4604      4606      4604      4607      4607      4608      4607      4609
      4607      4610      4610      4611      4610      4612      4610      4613
      4613      4614      4613      4615      4613      4616      4616      4617
      4616      4618      4616      4619      4619      4620      4619      4621
      4619      4622      4622      4623      4622      4624      4622      4625
      4625      4626      4625      4627      4625      4628      4628      4629
      4628      4630      4628      4631      4631      4632      4631      4633
      4631      4634      4634      4635      4634      4636      4634      4637
      4637      4638      4637      4639      4637      4640      4640      4641
      4640      4642      4640      4643      4643      4644      4643      4645
      4643      4646      4646      4647      4646      4648      4646      4649
      4649      4650      4649      4651      4649      4652      4652      4653
      4652      4654      4652      4655      4655      4656      4655      4657
      4655      4658      4658      4659      4658      4660      4658      4661
      4661      4662      4661      4663      4661      4664      4664      4665
      4664      4666      4664      4667      4667      4668      4667      4669
      4667      4670      4670      4671      4670      4672      4670      4673
      4673      4674      4673      4675      4673      4676      4676      4677
      4676      4678      4676      4679      4679      4680      4679      4681
      4679      4682      4682      4683      4682      4684      4682      4685
      4685      4686      4685      4687      4685      4688      4688      4689
      4688      4690      4688      4691      4691      4692      4691      4693
      4691      4694      4694      4695      4694      4696      4694      4697
      4697      4698      4697      4699      4697      4700      4700      4701
      4700      4702      4700      4703      4703      4705      4703      4706
      4704      4703      4707      4708      4707      4710      4707      4711
      4709      4707      4711      4712      4711      4713      4711      4714
      4714      4715      4714      4716      4714      4717      4717      4718
      4717      4719      4717      4720      4720      4721      4720      4722
      4720      4723      4723      4724      4723      4725      4723      4726
      4726      4727      4726      4728      4726      4729      4729      4730
      4729      4731      4729      4732      4732      4733      4732      4734
      4732      4735      4735      4736      4735      4737      4735      4738
      4738      4739      4738      4740      4738      4741      4741      4742
      4741      4743      4741      4744      4744      4745      4744      4746
      4744      4747      4747      4748      4747      4749      4747      4750
      4750      4751      4750      4752      4750      4753      4753      4754
      4753      4755      4753      4756      4756      4757      4756      4758
      4756      4759      4759      4760      4759      4761      4759      4762
      4762      4763      4762      4764      4762      4765      4765      4766
      4765      4767      4765      4768      4768      4769      4768      4770
      4768      4771      4771      4772      4771      4773      4771      4774
      4774      4775      4774      4776      4774      4777      4777      4778
      4777      4779      4777      4780      4780      4781      4780      4782
      4780      4783      4783      4784      4783      4785      4783      4786
      4786      4787      4786      4788      4786      4789      4789      4790
      4789      4791      4789      4792      4792      4793      4792      4794
      4792      4795      4795      4796      4795      4797      4795      4798
      4798      4799      4798      4800      4798      4801      4801      4802
      4801      4803      4801      4804      4804      4805      4804      4806
      4804      4807      4807      4808      4807      4809      4807      4810
      4810      4811      4810      4812      4810      4813      4813      4814
      4813      4815      4813      4816      4816      4817      4816      4818
      4816      4819      4819      4820      4819      4821      4819      4822
      4822      4823      4822      4824      4822      4825      4825      4826
      4825      4827      4825      4828      4828      4829      4828      4830
      4828      4831      4831      4832      4831      4833      4831      4834
      4834      4835      4834      4836      4834      4837      4837      4838
      4837      4839      4837      4840      4840      4841      4840      4842
      4840      4843      4843      4844      4843      4845      4843      4846
      4846      4847      4846      4848      4846      4849      4849      4850
      4849      4851      4849      4852      4852      4853      4852      4854
      4852      4855      4855      4856      4855      4857      4855      4858
      4858      4859      4858      4860      4858      4861      4861      4862
      4861      4863      4861      4864      4864      4865      4864      4866
      4864      4867      4867      4868      4867      4869      4867      4870
      4870      4871      4870      4872      4870      4873      4873      4874
      4873      4875      4873      4876      4876      4877      4876      4878
      4876      4879      4879      4880      4879      4881      4879      4882
      4882      4883      4882      4884      4882      4885      4885      4886
      4885      4887      4885      4888      4888      4889      4888      4890
      4888      4891      4891      4892      4891      4893      4891      4894
      4894      4895      4894      4896      4894      4897      4897      4898
      4897      4899      4897      4900      4900      4901      4900      4902
      4900      4903      4903      4904      4903      4905      4903      4906
      4906      4907      4906      4908      4906      4909      4909      4910
      4909      4911      4909      4912      4912      4913      4912      4914
      4912      4915      4915      4916      4915      4917      4915      4918
      4918      4919      4918      4920      4918      4921      4921      4922
      4921      4923      4921      4924      4924      4925      4924      4926
      4924      4927      4927      4928      4927      4929      4927      4930
      4930      4931      4930      4932      4930      4933      4933      4934
      4933      4935      4933      4936      4936      4937      4936      4938
      4936      4939      4939      4940      4939      4941      4939      4942
      4942      4943      4942      4944      4942      4945      4945      4946
      4945      4947      4945      4948      4948      4949      4948      4950
      4948      4951      4951      4952      4951      4953      4951      4954
      4954      4955      4954      4956      4954      4957      4957      4958
      4957      4959      4957      4960      4960      4961      4960      4962
      4960      4963      4963      4964      4963      4965      4963      4966
      4966      4967      4966      4968      4966      4969      4969      4970
      4969      4971      4969      4972      4972      4973      4972      4974
      4972      4975      4975      4976      4975      4977      4975      4978
      4978      4979      4978      4980      4978      4981      4981      4982
      4981      4983      4981      4984      4984      4985      4984      4986
      4984      4987      4987      4988      4987      4989      4987      4990
      4990      4991      4990      4992      4990      4993      4993      4994
      4993      4995      4993      4996      4996      4997      4996      4998
      4996      4999      4999      5000      4999      5001      4999      5002
      5002      5003      5002      5004      5002      5005      5005      5006
      5005      5007      5005      5008      5008      5009      5008      5010
      5008      5011      5011      5012      5011      5013      5011      5014
      5014      5015      5014      5016      5014      5017      5017      5018
      5017      5019      5017      5020      5020      5021      5020      5022
      5020      5023      5023      5024      5023      5025      5023      5026
      5026      5027      5026      5028      5026      5029      5029      5030
      5029      5031      5029      5032      5032      5033      5032      5034
      5032      5035      5035      5036      5035      5037      5035      5038
      5038      5039      5038      5040      5038      5041      5041      5042
      5041      5043      5041      5044      5044      5045      5044      5046
      5044      5047      5047      5048      5047      5049      5047      5050
      5050      5051      5050      5052      5050      5053      5053      5054
      5053      5055      5053      5056      5056      5057      5056      5058
      5056      5059      5059      5060      5059      5061      5059      5062
      5062      5063      5062      5064      5062      5065      5065      5067
      5065      5068      5066      5065      5069      5070      5069      5072
      5069      5073      5071      5069      5073      5074      5073      5075
      5073      5076      5076      5077      5076      5078      5076      5079
      5079      5080      5079      5081      5079      5082      5082      5083
      5082      5084      5082      5085      5085      5086      5085      5087
      5085      5088      5088      5089      5088      5090      5088      5091
      5091      5092      5091      5093      5091      5094      5094      5095
      5094      5096      5094      5097      5097      5098      5097      5099
      5097      5100      5100      5101      5100      5102      5100      5103
      5103      5104      5103      5105      5103      5106      5106      5107
      5106      5108      5106      5109      5109      5110      5109      5111
      5109      5112      5112      5113      5112      5114      5112      5115
      5115      5116      5115      5117      5115      5118      5118      5119
      5118      5120      5118      5121      5121      5122      5121      5123
      5121      5124      5124      5125      5124      5126      5124      5127
      5127      5128      5127      5129      5127      5130      5130      5131
      5130      5132      5130      5133      5133      5134      5133      5135
      5133      5136      5136      5137      5136      5138      5136      5139
      5139      5140      5139      5141      5139      5142      5142      5143
      5142      5144      5142      5145      5145      5146      5145      5147
      5145      5148      5148      5149      5148      5150      5148      5151
      5151      5152      5151      5153      5151      5154      5154      5155
      5154      5156      5154      5157      5157      5158      5157      5159
      5157      5160      5160      5161      5160      5162      5160      5163
      5163      5164      5163      5165      5163      5166      5166      5167
      5166      5168      5166      5169      5169      5170      5169      5171
      5169      5172      5172      5173      5172      5174      5172      5175
      5175      5176      5175      5177      5175      5178      5178      5179
      5178      5180      5178      5181      5181      5182      5181      5183
      5181      5184      5184      5185      5184      5186      5184      5187
      5187      5188      5187      5189      5187      5190      5190      5191
      5190      5192      5190      5193      5193      5194      5193      5195
      5193      5196      5196      5197      5196      5198      5196      5199
      5199      5200      5199      5201      5199      5202      5202      5203
      5202      5204      5202      5205      5205      5206      5205      5207
      5205      5208      5208      5209      5208      5210      5208      5211
      5211      5212      5211      5213      5211      5214      5214      5215
      5214      5216      5214      5217      5217      5218      5217      5219
      5217      5220      5220      5221      5220      5222      5220      5223
      5223      5224      5223      5225      5223      5226      5226      5227
      5226      5228      5226      5229      5229      5230      5229      5231
      5229      5232      5232      5233      5232      5234      5232      5235
      5235      5236      5235      5237      5235      5238      5238      5239
      5238      5240      5238      5241      5241      5242      5241      5243
      5241      5244      5244      5245      5244      5246      5244      5247
      5247      5248      5247      5249      5247      5250      5250      5251
      5250      5252      5250      5253      5253      5254      5253      5255
      5253      5256      5256      5257      5256      5258      5256      5259
      5259      5260      5259      5261      5259      5262      5262      5263
      5262      5264      5262      5265      5265      5266      5265      5267
      5265      5268      5268      5269      5268      5270      5268      5271
      5271      5272      5271      5273      5271      5274      5274      5275
      5274      5276      5274      5277      5277      5278      5277      5279
      5277      5280      5280      5281      5280      5282      5280      5283
      5283      5284      5283      5285      5283      5286      5286      5287
      5286      5288      5286      5289      5289      5290      5289      5291
      5289      5292      5292      5293      5292      5294      5292      5295
      5295      5296      5295      5297      5295      5298      5298      5299
      5298      5300      5298      5301      5301      5302      5301      5303
      5301      5304      5304      5305      5304      5306      5304      5307
      5307      5308      5307      5309      5307      5310      5310      5311
      5310      5312      5310      5313      5313      5314      5313      5315
      5313      5316      5316      5317      5316      5318      5316      5319
      5319      5320      5319      5321      5319      5322      5322      5323
      5322      5324      5322      5325      5325      5326      5325      5327
      5325      5328      5328      5329      5328      5330      5328      5331
      5331      5332      5331      5333      5331      5334      5334      5335
      5334      5336      5334      5337      5337      5338      5337      5339
      5337      5340      5340      5341      5340      5342      5340      5343
      5343      5344      5343      5345      5343      5346      5346      5347
      5346      5348      5346      5349      5349      5350      5349      5351
      5349      5352      5352      5353      5352      5354      5352      5355
      5355      5356      5355      5357      5355      5358      5358      5359
      5358      5360      5358      5361      5361      5362      5361      5363
      5361      5364      5364      5365      5364      5366      5364      5367
      5367      5368      5367      5369      5367      5370      5370      5371
      5370      5372      5370      5373      5373      5374      5373      5375
      5373      5376      5376      5377      5376      5378      5376      5379
      5379      5380      5379      5381      5379      5382      5382      5383
      5382      5384      5382      5385      5385      5386      5385      5387
      5385      5388      5388      5389      5388      5390      5388      5391
      5391      5392      5391      5393      5391      5394      5394      5395
      5394      5396      5394      5397      5397      5398      5397      5399
      5397      5400      5400      5401      5400      5402      5400      5403
      5403      5404      5403      5405      5403      5406      5406      5407
      5406      5408      5406      5409      5409      5410      5409      5411
      5409      5412      5412      5413      5412      5414      5412      5415
      5415      5416      5415      5417      5415      5418      5418      5419
      5418      5420      5418      5421      5421      5422      5421      5423
      5421      5424      5424      5425      5424      5426      5424      5427
      5427      5429      5427      5430      5428      5427      5431      5432
      5431      5434      5431      5435      5433      5431      5435      5436
      5435      5437      5435      5438      5438      5439      5438      5440
      5438      5441      5441      5442      5441      5443      5441      5444
      5444      5445      5444      5446      5444      5447      5447      5448
      5447      5449      5447      5450      5450      5451      5450      5452
      5450      5453      5453      5454      5453      5455      5453      5456
      5456      5457      5456      5458      5456      5459      5459      5460
      5459      5461      5459      5462      5462      5463      5462      5464
      5462      5465      5465      5466      5465      5467      5465      5468
      5468      5469      5468      5470      5468      5471      5471      5472
      5471      5473      5471      5474      5474      5475      5474      5476
      5474      5477      5477      5478      5477      5479      5477      5480
      5480      5481      5480      5482      5480      5483      5483      5484
      5483      5485      5483      5486      5486      5487      5486      5488
      5486      5489      5489      5490      5489      5491      5489      5492
      5492      5493      5492      5494      5492      5495      5495      5496
      5495      5497      5495      5498      5498      5499      5498      5500
      5498      5501      5501      5502      5501      5503      5501      5504
      5504      5505      5504      5506      5504      5507      5507      5508
      5507      5509      5507      5510      5510      5511      5510      5512
      5510      5513      5513      5514      5513      5515      5513      5516
      5516      5517      5516      5518      5516      5519      5519      5520
      5519      5521      5519      5522      5522      5523      5522      5524
      5522      5525      5525      5526      5525      5527      5525      5528
      5528      5529      5528      5530      5528      5531      5531      5532
      5531      5533      5531      5534      5534      5535      5534      5536
      5534      5537      5537      5538      5537      5539      5537      5540
      5540      5541      5540      5542      5540      5543      5543      5544
      5543      5545      5543      5546      5546      5547      5546      5548
      5546      5549      5549      5550      5549      5551      5549      5552
      5552      5553      5552      5554      5552      5555      5555      5556
      5555      5557      5555      5558      5558      5559      5558      5560
      5558      5561      5561      5562      5561      5563      5561      5564
      5564      5565      5564      5566      5564      5567      5567      5568
      5567      5569      5567      5570      5570      5571      5570      5572
      5570      5573      5573      5574      5573      5575      5573      5576
      5576      5577      5576      5578      5576      5579      5579      5580
      5579      5581      5579      5582      5582      5583      5582      5584
      5582      5585      5585      5586      5585      5587      5585      5588
      5588      5589      5588      5590      5588      5591      5591      5592
      5591      5593      5591      5594      5594      5595      5594      5596
      5594      5597      5597      5598      5597      5599      5597      5600
      5600      5601      5600      5602      5600      5603      5603      5604
      5603      5605      5603      5606      5606      5607      5606      5608
      5606      5609      5609      5610      5609      5611      5609      5612
      5612      5613      5612      5614      5612      5615      5615      5616
      5615      5617      5615      5618      5618      5619      5618      5620
      5618      5621      5621      5622      5621      5623      5621      5624
      5624      5625      5624      5626      5624      5627      5627      5628
      5627      5629      5627      5630      5630      5631      5630      5632
      5630      5633      5633      5634      5633      5635      5633      5636
      5636      5637      5636      5638      5636      5639      5639      5640
      5639      5641      5639      5642      5642      5643      5642      5644
      5642      5645      5645      5646      5645      5647      5645      5648
      5648      5649      5648      5650      5648      5651      5651      5652
      5651      5653      5651      5654      5654      5655      5654      5656
      5654      5657      5657      5658      5657      5659      5657      5660
      5660      5661      5660      5662      5660      5663      5663      5664
      5663      5665      5663      5666      5666      5667      5666      5668
      5666      5669      5669      5670      5669      5671      5669      5672
      5672      5673      5672      5674      5672      5675      5675      5676
      5675      5677      5675      5678      5678      5679      5678      5680
      5678      5681      5681      5682      5681      5683      5681      5684
      5684      5685      5684      5686      5684      5687      5687      5688
      5687      5689      5687      5690      5690      5691      5690      5692
      5690      5693      5693      5694      5693      5695      5693      5696
      5696      5697      5696      5698      5696      5699      5699      5700
      5699      5701      5699      5702      5702      5703      5702      5704
      5702      5705      5705      5706      5705      5707      5705      5708
      5708      5709      5708      5710      5708      5711      5711      5712
      5711      5713      5711      5714      5714      5715      5714      5716
      5714      5717      5717      5718      5717      5719      5717      5720
      5720      5721      5720      5722      5720      5723      5723      5724
      5723      5725      5723      5726      5726      5727      5726      5728
      5726      5729      5729      5730      5729      5731      5729      5732
      5732      5733      5732      5734      5732      5735      5735      5736
      5735      5737      5735      5738      5738      5739      5738      5740
      5738      5741      5741      5742      5741      5743      5741      5744
      5744      5745      5744      5746      5744      5747      5747      5748
      5747      5749      5747      5750      5750      5751      5750      5752
      5750      5753      5753      5754      5753      5755      5753      5756
      5756      5757      5756      5758      5756      5759      5759      5760
      5759      5761      5759      5762      5762      5763      5762      5764
      5762      5765      5765      5766      5765      5767      5765      5768
      5768      5769      5768      5770      5768      5771      5771      5772
      5771      5773      5771      5774      5774      5775      5774      5776
      5774      5777      5777      5778      5777      5779      5777      5780
      5780      5781      5780      5782      5780      5783      5783      5784
      5783      5785      5783      5786      5786      5787      5786      5788
      5786      5789      5789      5791      5789      5792      5790      5789

   11520 !NTHETA: angles
         1         5         8         1         5         7         1         5         6
         2         1         5         2         1         4         3         1         5
         3         1         4         3         1         2         4         1         5
         6         5         8         6         5         7         7         5         8
         8        11        14         8        11        13         8        11        12
         9         8         5         9         8        11         9         8        10
        10         8         5        10         8        11        11         8         5
        12        11        14        12        11        13        13        11        14
        14        17        20        14        17        19        14        17        18
        15        14        11        15        14        17        15        14        16
        16        14        11        16        14        17        17        14        11
        18        17        20        18        17        19        19        17        20
        20        23        26        20        23        25        20        23        24
        21        20        17        21        20        23        21        20        22
        22        20        17        22        20        23        23        20        17
        24        23        26        24        23        25        25        23        26
        26        29        32        26        29        31        26        29        30
        27        26        23        27        26        29        27        26        28
        28        26        23        28        26        29        29        26        23
        30        29        32        30        29        31        31        29        32
        32        35        38        32        35        37        32        35        36
        33        32        29        33        32        35        33        32        34
        34        32        29        34        32        35        35        32        29
        36        35        38        36        35        37        37        35        38
        38        41        44        38        41        43        38        41        42
        39        38        35        39        38        41        39        38        40
        40        38        35        40        38        41        41        38        35
        42        41        44        42        41        43        43        41        44
        44        47        50        44        47        49        44        47        48
        45        44        41        45        44        47        45        44        46
        46        44        41        46        44        47        47        44        41
        48        47        50        48        47        49        49        47        50
        50        53        56        50        53        55        50        53        54
        51        50        47        51        50        53        51        50        52
        52        50        47        52        50        53        53        50        47
        54        53        56        54        53        55        55        53        56
        56        59        62        56        59        61        56        59        60
        57        56        53        57        56        59        57        56        58
        58        56        53        58        56        59        59        56        53
        60        59        62        60        59        61        61        59        62
        62        65        68        62        65        67        62        65        66
        63        62        59        63        62        65        63        62        64
        64        62        59        64        62        65        65        62        59
        66        65        68        66        65        67        67        65        68
        68        71        74        68        71        73        68        71        72
        69        68        65        69        68        71        69        68        70
        70        68        65        70        68        71        71        68        65
        72        71        74        72        71        73        73        71        74
        74        77        80        74        77        79        74        77        78
        75        74        71        75        74        77        75        74        76
        76        74        71        76        74        77        77        74        71
        78        77        80        78        77        79        79        77        80
        80        83        86        80        83        85        80        83        84
        81        80        77        81        80        83        81        80        82
        82        80        77        82        80        83        83        80        77
        84        83        86        84        83        85        85        83        86
        86        89        92        86        89        91        86        89        90
        87        86        83        87        86        89        87        86        88
        88        86        83        88        86        89        89        86        83
        90        89        92        90        89        91        91        89        92
        92        95        98        92        95        97        92        95        96
        93        92        89        93        92        95        93        92        94
        94        92        89        94        92        95        95        92        89
        96        95        98        96        95        97        97        95        98
        98       101       104        98       101       103        98       101       102
        99        98        95        99        98       101        99        98       100
       100        98        95       100        98       101       101        98        95
       102       101       104       102       101       103       103       101       104
       104       107       110       104       107       109       104       107       108
       105       104       101       105       104       107       105       104       106
       106       104       101       106       104       107       107       104       101
       108       107       110       108       107       109       109       107       110
       110       113       116       110       113       115       110       113       114
       111       110       107       111       110       113       111       110       112
       112       110       107       112       110       113       113       110       107
       114       113       116       114       113       115       115       113       116
       116       119       122       116       119       121       116       119       120
       117       116       113       117       116       119       117       116       118
       118       116       113       118       116       119       119       116       113
       120       119       122       120       119       121       121       119       122
       122       125       128       122       125       127       122       125       126
       123       122       119       123       122       125       123       122       124
       124       122       119       124       122       125       125       122       119
       126       125       128       126       125       127       127       125       128
       128       131       134       128       131       133       128       131       132
       129       128       125       129       128       131       129       128       130
       130       128       125       130       128       131       131       128       125
       132       131       134       132       131       133       133       131       134
       134       137       140       134       137       139       134       137       138
       135       134       131       135       134       137       135       134       136
       136       134       131       136       134       137       137       134       131
       138       137       140       138       137       139       139       137       140
       140       143       146       140       143       145       140       143       144
       141       140       137       141       140       143       141       140       142
       142       140       137       142       140       143       143       140       137
       144       143       146       144       143       145       145       143       146
       146       149       152       146       149       151       146       149       150
       147       146       143       147       146       149       147       146       148
       148       146       143       148       146       149       149       146       143
       150       149       152       150       149       151       151       149       152
       152       155       158       152       155       157       152       155       156
       153       152       149       153       152       155       153       152       154
       154       152       149       154       152       155       155       152       149
       156       155       158       156       155       157       157       155       158
       158       161       164       158       161       163       158       161       162
       159       158       155       159       158       161       159       158       160
       160       158       155       160       158       161       161       158       155
       162       161       164       162       161       163       163       161       164
       164       167       170       164       167       169       164       167       168
       165       164       161       165       164       167       165       164       166
       166       164       161       166       164       167       167       164       161
       168       167       170       168       167       169       169       167       170
       170       173       176       170       173       175       170       173       174
       171       170       167       171       170       173       171       170       172
       172       170       167       172       170       173       173       170       167
       174       173       176       174       173       175       175       173       176
       176       179       182       176       179       181       176       179       180
       177       176       173       177       176       179       177       176       178
       178       176       173       178       176       179       179       176       173
       180       179       182       180       179       181       181       179       182
       182       185       188       182       185       187       182       185       186
       183       182       179       183       182       185       183       182       184
       184       182       179       184       182       185       185       182       179
       186       185       188       186       185       187       187       185       188
       188       191       194       188       191       193       188       191       192
       189       188       185       189       188       191       189       188       190
       190       188       185       190       188       191       191       188       185
       192       191       194       192       191       193       193       191       194
       194       197       200       194       197       199       194       197       198
       195       194       191       195       194       197       195       194       196
       196       194       191       196       194       197       197       194       191
       198       197       200       198       197       199       199       197       200
       200       203       206       200       203       205       200       203       204
       201       200       197       201       200       203       201       200       202
       202       200       197       202       200       203       203       200       197
       204       203       206       204       203       205       205       203       206
       206       209       212       206       209       211       206       209       210
       207       206       203       207       206       209       207       206       208
       208       206       203       208       206       209       209       206       203
       210       209       212       210       209       211       211       209       212
       212       215       218       212       215       217       212       215       216
       213       212       209       213       212       215       213       212       214
       214       212       209       214       212       215       215       212       209
       216       215       218       216       215       217       217       215       218
       218       221       224       218       221       223       218       221       222
       219       218       215       219       218       221       219       218       220
       220       218       215       220       218       221       221       218       215
       222       221       224       222       221       223       223       221       224
       224       227       230       224       227       229       224       227       228
       225       224       221       225       224       227       225       224       226
       226       224       221       226       224       227       227       224       221
       228       227       230       228       227       229       229       227       230
       230       233       236       230       233       235       230       233       234
       231       230       227       231       230       233       231       230       232
       232       230       227       232       230       233       233       230       227
       234       233       236       234       233       235       235       233       236
       236       239       242       236       239       241       236       239       240
       237       236       233       237       236       239       237       236       238
       238       236       233       238       236       239       239       236       233
       240       239       242       240       239       241       241       239       242
       242       245       248       242       245       247       242       245       246
       243       242       239       243       242       245       243       242       244
       244       242       239       244       242       245       245       242       239
       246       245       248       246       245       247       247       245       248
       248       251       254       248       251       253       248       251       252
       249       248       245       249       248       251       249       248       250
       250       248       245       250       248       251       251       248       245
       252       251       254       252       251       253       253       251       254
       254       257       260       254       257       259       254       257       258
       255       254       251       255       254       257       255       254       256
       256       254       251       256       254       257       257       254       251
       258       257       260       258       257       259       259       257       260
       260       263       266       260       263       265       260       263       264
       261       260       257       261       260       263       261       260       262
       262       260       257       262       260       263       263       260       257
       264       263       266       264       263       265       265       263       266
       266       269       272       266       269       271       266       269       270
       267       266       263       267       266       269       267       266       268
       268       266       263       268       266       269       269       266       263
       270       269       272       270       269       271       271       269       272
       272       275       278       272       275       277       272       275       276
       273       272       269       273       272       275       273       272       274
       274       272       269       274       272       275       275       272       269
       276       275       278       276       275       277       277       275       278
       278       281       284       278       281       283       278       281       282
       279       278       275       279       278       281       279       278       280
       280       278       275       280       278       281       281       278       275
       282       281       284       282       281       283       283       281       284
       284       287       290       284       287       289       284       287       288
       285       284       281       285       284       287       285       284       286
       286       284       281       286       284       287       287       284       281
       288       287       290       288       287       289       289       287       290
       290       293       296       290       293       295       290       293       294
       291       290       287       291       290       293       291       290       292
       292       290       287       292       290       293       293       290       287
       294       293       296       294       293       295       295       293       296
       296       299       302       296       299       301       296       299       300
       297       296       293       297       296       299       297       296       298
       298       296       293       298       296       299       299       296       293
       300       299       302       300       299       301       301       299       302
       302       305       308       302       305       307       302       305       306
       303       302       299       303       302       305       303       302       304
       304       302       299       304       302       305       305       302       299
       306       305       308       306       305       307       307       305       308
       308       311       314       308       311       313       308       311       312
       309       308       305       309       308       311       309       308       310
       310       308       305       310       308       311       311       308       305
       312       311       314       312       311       313       313       311       314
       314       317       320       314       317       319       314       317       318
       315       314       311       315       314       317       315       314       316
       316       314       311       316       314       317       317       314       311
       318       317       320       318       317       319       319       317       320
       320       323       326       320       323       325       320       323       324
       321       320       317       321       320       323       321       320       322
       322       320       317       322       320       323       323       320       317
       324       323       326       324       323       325       325       323       326
       326       329       332       326       329       331       326       329       330
       327       326       323       327       326       329       327       326       328
       328       326       323       328       326       329       329       326       323
       330       329       332       330       329       331       331       329       332
       332       335       338       332       335       337       332       335       336
       333       332       329       333       332       335       333       332       334
       334       332       329       334       332       335       335       332       329
       336       335       338       336       335       337       337       335       338
       338       341       344       338       341       343       338       341       342
       339       338       335       339       338       341       339       338       340
       340       338       335       340       338       341       341       338       335
       342       341       344       342       341       343       343       341       344
       344       347       350       344       347       349       344       347       348
       345       344       341       345       344       347       345       344       346
       346       344       341       346       344       347       347       344       341
       348       347       350       348       347       349       349       347       350
       350       353       356       350       353       355       350       353       354
       351       350       347       351       350       353       351       350       352
       352       350       347       352       350       353       353       350       347
       354       353       356       354       353       355       355       353       356
       356       359       362       356       359       361       357       356       353
       357       356       359       357       356       358       358       356       353
       358       356       359       359       356       353       360       359       362
       360       359       361       360       359       356       361       359       362
       363       367       370       363       367       369       363       367       368
       364       363       367       364       363       366       365       363       367
       365       363       366       365       363       364       366       363       367
       368       367       370       368       367       369       369       367       370
       370       373       376       370       373       375       370       373       374
       371       370       367       371       370       373       371       370       372
       372       370       367       372       370       373       373       370       367
       374       373       376       374       373       375       375       373       376
       376       379       382       376       379       381       376       379       380
       377       376       373       377       376       379       377       376       378
       378       376       373       378       376       379       379       376       373
       380       379       382       380       379       381       381       379       382
       382       385       388       382       385       387       382       385       386
       383       382       379       383       382       385       383       382       384
       384       382       379       384       382       385       385       382       379
       386       385       388       386       385       387       387       385       388
       388       391       394       388       391       393       388       391       392
       389       388       385       389       388       391       389       388       390
       390       388       385       390       388       391       391       388       385
       392       391       394       392       391       393       393       391       394
       394       397       400       394       397       399       394       397       398
       395       394       391       395       394       397       395       394       396
       396       394       391       396       394       397       397       394       391
       398       397       400       398       397       399       399       397       400
       400       403       406       400       403       405       400       403       404
       401       400       397       401       400       403       401       400       402
       402       400       397       402       400       403       403       400       397
       404       403       406       404       403       405       405       403       406
       406       409       412       406       409       411       406       409       410
       407       406       403       407       406       409       407       406       408
       408       406       403       408       406       409       409       406       403
       410       409       412       410       409       411       411       409       412
       412       415       418       412       415       417       412       415       416
       413       412       409       413       412       415       413       412       414
       414       412       409       414       412       415       415       412       409
       416       415       418       416       415       417       417       415       418
       418       421       424       418       421       423       418       421       422
       419       418       415       419       418       421       419       418       420
       420       418       415       420       418       421       421       418       415
       422       421       424       422       421       423       423       421       424
       424       427       430       424       427       429       424       427       428
       425       424       421       425       424       427       425       424       426
       426       424       421       426       424       427       427       424       421
       428       427       430       428       427       429       429       427       430
       430       433       436       430       433       435       430       433       434
       431       430       427       431       430       433       431       430       432
       432       430       427       432       430       433       433       430       427
       434       433       436       434       433       435       435       433       436
       436       439       442       436       439       441       436       439       440
       437       436       433       437       436       439       437       436       438
       438       436       433       438       436       439       439       436       433
       440       439       442       440       439       441       441       439       442
       442       445       448       442       445       447       442       445       446
       443       442       439       443       442       445       443       442       444
       444       442       439       444       442       445       445       442       439
       446       445       448       446       445       447       447       445       448
       448       451       454       448       451       453       448       451       452
       449       448       445       449       448       451       449       448       450
       450       448       445       450       448       451       451       448       445
       452       451       454       452       451       453       453       451       454
       454       457       460       454       457       459       454       457       458
       455       454       451       455       454       457       455       454       456
       456       454       451       456       454       457       457       454       451
       458       457       460       458       457       459       459       457       460
       460       463       466       460       463       465       460       463       464
       461       460       457       461       460       463       461       460       462
       462       460       457       462       460       463       463       460       457
       464       463       466       464       463       465       465       463       466
       466       469       472       466       469       471       466       469       470
       467       466       463       467       466       469       467       466       468
       468       466       463       468       466       469       469       466       463
       470       469       472       470       469       471       471       469       472
       472       475       478       472       475       477       472       475       476
       473       472       469       473       472       475       473       472       474
       474       472       469       474       472       475       475       472       469
       476       475       478       476       475       477       477       475       478
       478       481       484       478       481       483       478       481       482
       479       478       475       479       478       481       479       478       480
       480       478       475       480       478       481       481       478       475
       482       481       484       482       481       483       483       481       484
       484       487       490       484       487       489       484       487       488
       485       484       481       485       484       487       485       484       486
       486       484       481       486       484       487       487       484       481
       488       487       490       488       487       489       489       487       490
       490       493       496       490       493       495       490       493       494
       491       490       487       491       490       493       491       490       492
       492       490       487       492       490       493       493       490       487
       494       493       496       494       493       495       495       493       496
       496       499       502       496       499       501       496       499       500
       497       496       493       497       496       499       497       496       498
       498       496       493       498       496       499       499       496       493
       500       499       502       500       499       501       501       499       502
       502       505       508       502       505       507       502       505       506
       503       502       499       503       502       505       503       502       504
       504       502       499       504       502       505       505       502       499
       506       505       508       506       505       507       507       505       508
       508       511       514       508       511       513       508       511       512
       509       508       505       509       508       511       509       508       510
       510       508       505       510       508       511       511       508       505
       512       511       514       512       511       513       513       511       514
       514       517       520       514       517       519       514       517       518
       515       514       511       515       514       517       515       514       516
       516       514       511       516       514       517       517       514       511
       518       517       520       518       517       519       519       517       520
       520       523       526       520       523       525       520       523       524
       521       520       517       521       520       523       521       520       522
       522       520       517       522       520       523       523       520       517
       524       523       526       524       523       525       525       523       526
       526       529       532       526       529       531       526       529       530
       527       526       523       527       526       529       527       526       528
       528       526       523       528       526       529       529       526       523
       530       529       532       530       529       531       531       529       532
       532       535       538       532       535       537       532       535       536
       533       532       529       533       532       535       533       532       534
       534       532       529       534       532       535       535       532       529
       536       535       538       536       535       537       537       535       538
       538       541       544       538       541       543       538       541       542
       539       538       535       539       538       541       539       538       540
       540       538       535       540       538       541       541       538       535
       542       541       544       542       541       543       543       541       544
       544       547       550       544       547       549       544       547       548
       545       544       541       545       544       547       545       544       546
       546       544       541       546       544       547       547       544       541
       548       547       550       548       547       549       549       547       550
       550       553       556       550       553       555       550       553       554
       551       550       547       551       550       553       551       550       552
       552       550       547       552       550       553       553       550       547
       554       553       556       554       553       555       555       553       556
       556       559       562       556       559       561       556       559       560
       557       556       553       557       556       559       557       556       558
       558       556       553       558       556       559       559       556       553
       560       559       562       560       559       561       561       559       562
       562       565       568       562       565       567       562       565       566
       563       562       559       563       562       565       563       562       564
       564       562       559       564       562       565       565       562       559
       566       565       568       566       565       567       567       565       568
       568       571       574       568       571       573       568       571       572
       569       568       565       569       568       571       569       568       570
       570       568       565       570       568       571       571       568       565
       572       571       574       572       571       573       573       571       574
       574       577       580       574       577       579       574       577       578
       575       574       571       575       574       577       575       574       576
       576       574       571       576       574       577       577       574       571
       578       577       580       578       577       579       579       577       580
       580       583       586       580       583       585       580       583       584
       581       580       577       581       580       583       581       580       582
       582       580       577       582       580       583       583       580       577
       584       583       586       584       583       585       585       583       586
       586       589       592       586       589       591       586       589       590
       587       586       583       587       586       589       587       586       588
       588       586       583       588       586       589       589       586       583
       590       589       592       590       589       591       591       589       592
       592       595       598       592       595       597       592       595       596
       593       592       589       593       592       595       593       592       594
       594       592       589       594       592       595       595       592       589
       596       595       598       596       595       597       597       595       598
       598       601       604       598       601       603       598       601       602
       599       598       595       599       598       601       599       598       600
       600       598       595       600       598       601       601       598       595
       602       601       604       602       601       603       603       601       604
       604       607       610       604       607       609       604       607       608
       605       604       601       605       604       607       605       604       606
       606       604       601       606       604       607       607       604       601
       608       607       610       608       607       609       609       607       610
       610       613       616       610       613       615       610       613       614
       611       610       607       611       610       613       611       610       612
       612       610       607       612       610       613       613       610       607
       614       613       616       614       613       615       615       613       616
       616       619       622       616       619       621       616       619       620
       617       616       613       617       616       619       617       616       618
       618       616       613       618       616       619       619       616       613
       620       619       622       620       619       621       621       619       622
       622       625       628       622       625       627       622       625       626
       623       622       619       623       622       625       623       622       624
       624       622       619       624       622       625       625       622       619
       626       625       628       626       625       627       627       625       628
       628       631       634       628       631       633       628       631       632
       629       628       625       629       628       631       629       628       630
       630       628       625       630       628       631       631       628       625
       632       631       634       632       631       633       633       631       634
       634       637       640       634       637       639       634       637       638
       635       634       631       635       634       637       635       634       636
       636       634       631       636       634       637       637       634       631
       638       637       640       638       637       639       639       637       640
       640       643       646       640       643       645       640       643       644
       641       640       637       641       640       643       641       640       642
       642       640       637       642       640       643       643       640       637
       644       643       646       644       643       645       645       643       646
       646       649       652       646       649       651       646       649       650
       647       646       643       647       646       649       647       646       648
       648       646       643       648       646       649       649       646       643
       650       649       652       650       649       651       651       649       652
       652       655       658       652       655       657       652       655       656
       653       652       649       653       652       655       653       652       654
       654       652       649       654       652       655       655       652       649
       656       655       658       656       655       657       657       655       658
       658       661       664       658       661       663       658       661       662
       659       658       655       659       658       661       659       658       660
       660       658       655       660       658       661       661       658       655
       662       661       664       662       661       663       663       661       664
       664       667       670       664       667       669       664       667       668
       665       664       661       665       664       667       665       664       666
       666       664       661       666       664       667       667       664       661
       668       667       670       668       667       669       669       667       670
       670       673       676       670       673       675       670       673       674
       671       670       667       671       670       673       671       670       672
       672       670       667       672       670       673       673       670       667
       674       673       676       674       673       675       675       673       676
       676       679       682       676       679       681       676       679       680
       677       676       673       677       676       679       677       676       678
       678       676       673       678       676       679       679       676       673
       680       679       682       680       679       681       681       679       682
       682       685       688       682       685       687       682       685       686
       683       682       679       683       682       685       683       682       684
       684       682       679       684       682       685       685       682       679
       686       685       688       686       685       687       687       685       688
       688       691       694       688       691       693       688       691       692
       689       688       685       689       688       691       689       688       690
       690       688       685       690       688       691       691       688       685
       692       691       694       692       691       693       693       691       694
       694       697       700       694       697       699       694       697       698
       695       694       691       695       694       697       695       694       696
       696       694       691       696       694       697       697       694       691
       698       697       700       698       697       699       699       697       700
       700       703       706       700       703       705       700       703       704
       701       700       697       701       700       703       701       700       702
       702       700       697       702       700       703       703       700       697
       704       703       706       704       703       705       705       703       706
       706       709       712       706       709       711       706       709       710
       707       706       703       707       706       709       707       706       708
       708       706       703       708       706       709       709       706       703
       710       709       712       710       709       711       711       709       712
       712       715       718       712       715       717       712       715       716
       713       712       709       713       712       715       713       712       714
       714       712       709       714       712       715       715       712       709
       716       715       718       716       715       717       717       715       718
       718       721       724       718       721       723       719       718       715
       719       718       721       719       718       720       720       718       715
       720       718       721       721       718       715       722       721       724
       722       721       723       722       721       718       723       721       724
       725       729       732       725       729       731       725       729       730
       726       725       729       726       725       728       727       725       729
       727       725       728       727       725       726       728       725       729
       730       729       732       730       729       731       731       729       732
       732       735       738       732       735       737       732       735       736
       733       732       729       733       732       735       733       732       734
       734       732       729       734       732       735       735       732       729
       736       735       738       736       735       737       737       735       738
       738       741       744       738       741       743       738       741       742
       739       738       735       739       738       741       739       738       740
       740       738       735       740       738       741       741       738       735
       742       741       744       742       741       743       743       741       744
       744       747       750       744       747       749       744       747       748
       745       744       741       745       744       747       745       744       746
       746       744       741       746       744       747       747       744       741
       748       747       750       748       747       749       749       747       750
       750       753       756       750       753       755       750       753       754
       751       750       747       751       750       753       751       750       752
       752       750       747       752       750       753       753       750       747
       754       753       756       754       753       755       755       753       756
       756       759       762       756       759       761       756       759       760
       757       756       753       757       756       759       757       756       758
       758       756       753       758       756       759       759       756       753
       760       759       762       760       759       761       761       759       762
       762       765       768       762       765       767       762       765       766
       763       762       759       763       762       765       763       762       764
       764       762       759       764       762       765       765       762       759
       766       765       768       766       765       767       767       765       768
       768       771       774       768       771       773       768       771       772
       769       768       765       769       768       771       769       768       770
       770       768       765       770       768       771       771       768       765
       772       771       774       772       771       773       773       771       774
       774       777       780       774       777       779       774       777       778
       775       774       771       775       774       777       775       774       776
       776       774       771       776       774       777       777       774       771
       778       777       780       778       777       779       779       777       780
       780       783       786       780       783       785       780       783       784
       781       780       777       781       780       783       781       780       782
       782       780       777       782       780       783       783       780       777
       784       783       786       784       783       785       785       783       786
       786       789       792       786       789       791       786       789       790
       787       786       783       787       786       789       787       786       788
       788       786       783       788       786       789       789       786       783
       790       789       792       790       789       791       791       789       792
       792       795       798       792       795       797       792       795       796
       793       792       789       793       792       795       793       792       794
       794       792       789       794       792       795       795       792       789
       796       795       798       796       795       797       797       795       798
       798       801       804       798       801       803       798       801       802
       799       798       795       799       798       801       799       798       800
       800       798       795       800       798       801       801       798       795
       802       801       804       802       801       803       803       801       804
       804       807       810       804       807       809       804       807       808
       805       804       801       805       804       807       805       804       806
       806       804       801       806       804       807       807       804       801
       808       807       810       808       807       809       809       807       810
       810       813       816       810       813       815       810       813       814
       811       810       807       811       810       813       811       810       812
       812       810       807       812       810       813       813       810       807
       814       813       816       814       813       815       815       813       816
       816       819       822       816       819       821       816       819       820
       817       816       813       817       816       819       817       816       818
       818       816       813       818       816       819       819       816       813
       820       819       822       820       819       821       821       819       822
       822       825       828       822       825       827       822       825       826
       823       822       819       823       822       825       823       822       824
       824       822       819       824       822       825       825       822       819
       826       825       828       826       825       827       827       825       828
       828       831       834       828       831       833       828       831       832
       829       828       825       829       828       831       829       828       830
       830       828       825       830       828       831       831       828       825
       832       831       834       832       831       833       833       831       834
       834       837       840       834       837       839       834       837       838
       835       834       831       835       834       837       835       834       836
       836       834       831       836       834       837       837       834       831
       838       837       840       838       837       839       839       837       840
       840       843       846       840       843       845       840       843       844
       841       840       837       841       840       843       841       840       842
       842       840       837       842       840       843       843       840       837
       844       843       846       844       843       845       845       843       846
       846       849       852       846       849       851       846       849       850
       847       846       843       847       846       849       847       846       848
       848       846       843       848       846       849       849       846       843
       850       849       852       850       849       851       851       849       852
       852       855       858       852       855       857       852       855       856
       853       852       849       853       852       855       853       852       854
       854       852       849       854       852       855       855       852       849
       856       855       858       856       855       857       857       855       858
       858       861       864       858       861       863       858       861       862
       859       858       855       859       858       861       859       858       860
       860       858       855       860       858       861       861       858       855
       862       861       864       862       861       863       863       861       864
       864       867       870       864       867       869       864       867       868
       865       864       861       865       864       867       865       864       866
       866       864       861       866       864       867       867       864       861
       868       867       870       868       867       869       869       867       870
       870       873       876       870       873       875       870       873       874
       871       870       867       871       870       873       871       870       872
       872       870       867       872       870       873       873       870       867
       874       873       876       874       873       875       875       873       876
       876       879       882       876       879       881       876       879       880
       877       876       873       877       876       879       877       876       878
       878       876       873       878       876       879       879       876       873
       880       879       882       880       879       881       881       879       882
       882       885       888       882       885       887       882       885       886
       883       882       879       883       882       885       883       882       884
       884       882       879       884       882       885       885       882       879
       886       885       888       886       885       887       887       885       888
       888       891       894       888       891       893       888       891       892
       889       888       885       889       888       891       889       888       890
       890       888       885       890       888       891       891       888       885
       892       891       894       892       891       893       893       891       894
       894       897       900       894       897       899       894       897       898
       895       894       891       895       894       897       895       894       896
       896       894       891       896       894       897       897       894       891
       898       897       900       898       897       899       899       897       900
       900       903       906       900       903       905       900       903       904
       901       900       897       901       900       903       901       900       902
       902       900       897       902       900       903       903       900       897
       904       903       906       904       903       905       905       903       906
       906       909       912       906       909       911       906       909       910
       907       906       903       907       906       909       907       906       908
       908       906       903       908       906       909       909       906       903
       910       909       912       910       909       911       911       909       912
       912       915       918       912       915       917       912       915       916
       913       912       909       913       912       915       913       912       914
       914       912       909       914       912       915       915       912       909
       916       915       918       916       915       917       917       915       918
       918       921       924       918       921       923       918       921       922
       919       918       915       919       918       921       919       918       920
       920       918       915       920       918       921       921       918       915
       922       921       924       922       921       923       923       921       924
       924       927       930       924       927       929       924       927       928
       925       924       921       925       924       927       925       924       926
       926       924       921       926       924       927       927       924       921
       928       927       930       928       927       929       929       927       930
       930       933       936       930       933       935       930       933       934
       931       930       927       931       930       933       931       930       932
       932       930       927       932       930       933       933       930       927
       934       933       936       934       933       935       935       933       936
       936       939       942       936       939       941       936       939       940
       937       936       933       937       936       939       937       936       938
       938       936       933       938       936       939       939       936       933
       940       939       942       940       939       941       941       939       942
       942       945       948       942       945       947       942       945       946
       943       942       939       943       942       945       943       942       944
       944       942       939       944       942       945       945       942       939
       946       945       948       946       945       947       947       945       948
       948       951       954       948       951       953       948       951       952
       949       948       945       949       948       951       949       948       950
       950       948       945       950       948       951       951       948       945
       952       951       954       952       951       953       953       951       954
       954       957       960       954       957       959       954       957       958
       955       954       951       955       954       957       955       954       956
       956       954       951       956       954       957       957       954       951
       958       957       960       958       957       959       959       957       960
       960       963       966       960       963       965       960       963       964
       961       960       957       961       960       963       961       960       962
       962       960       957       962       960       963       963       960       957
       964       963       966       964       963       965       965       963       966
       966       969       972       966       969       971       966       969       970
       967       966       963       967       966       969       967       966       968
       968       966       963       968       966       969       969       966       963
       970       969       972       970       969       971       971       969       972
       972       975       978       972       975       977       972       975       976
       973       972       969       973       972       975       973       972       974
       974       972       969       974       972       975       975       972       969
       976       975       978       976       975       977       977       975       978
       978       981       984       978       981       983       978       981       982
       979       978       975       979       978       981       979       978       980
       980       978       975       980       978       981       981       978       975
       982       981       984       982       981       983       983       981       984
       984       987       990       984       987       989       984       987       988
       985       984       981       985       984       987       985       984       986
       986       984       981       986       984       987       987       984       981
       988       987       990       988       987       989       989       987       990
       990       993       996       990       993       995       990       993       994
       991       990       987       991       990       993       991       990       992
       992       990       987       992       990       993       993       990       987
       994       993       996       994       993       995       995       993       996
       996       999      1002       996       999      1001       996       999      1000
       997       996       993       997       996       999       997       996       998
       998       996       993       998       996       999       999       996       993
      1000       999      1002      1000       999      1001      1001       999      1002
      1002      1005      1008      1002      1005      1007      1002      1005      1006
      1003      1002       999      1003      1002      1005      1003      1002      1004
      1004      1002       999      1004      1002      1005      1005      1002       999
      1006      1005      1008      1006      1005      1007      1007      1005      1008
      1008      1011      1014      1008      1011      1013      1008      1011      1012
      1009      1008      1005      1009      1008      1011      1009      1008      1010
      1010      1008      1005      1010      1008      1011      1011      1008      1005
      1012      1011      1014      1012      1011      1013      1013      1011      1014
      1014      1017      1020      1014      1017      1019      1014      1017      1018
      1015      1014      1011      1015      1014      1017      1015      1014      1016
      1016      1014      1011      1016      1014      1017      1017      1014      1011
      1018      1017      1020      1018      1017      1019      1019      1017      1020
      1020      1023      1026      1020      1023      1025      1020      1023      1024
      1021      1020      1017      1021      1020      1023      1021      1020      1022
      1022      1020      1017      1022      1020      1023      1023      1020      1017
      1024      1023      1026      1024      1023      1025      1025      1023      1026
      1026      1029      1032      1026      1029      1031      1026      1029      1030
      1027      1026      1023      1027      1026      1029      1027      1026      1028
      1028      1026      1023      1028      1026      1029      1029      1026      1023
      1030      1029      1032      1030      1029      1031      1031      1029      1032
      1032      1035      1038      1032      1035      1037      1032      1035      1036
      1033      1032      1029      1033      1032      1035      1033      1032      1034
      1034      1032      1029      1034      1032      1035      1035      1032      1029
      1036      1035      1038      1036      1035      1037      1037      1035      1038
      1038      1041      1044      1038      1041      1043      1038      1041      1042
      1039      1038      1035      1039      1038      1041      1039      1038      1040
      1040      1038      1035      1040      1038      1041      1041      1038      1035
      1042      1041      1044      1042      1041      1043      1043      1041      1044
      1044      1047      1050      1044      1047      1049      1044      1047      1048
      1045      1044      1041      1045      1044      1047      1045      1044      1046
      1046      1044      1041      1046      1044      1047      1047      1044      1041
      1048      1047      1050      1048      1047      1049      1049      1047      1050
      1050      1053      1056      1050      1053      1055      1050      1053      1054
      1051      1050      1047      1051      1050      1053      1051      1050      1052
      1052      1050      1047      1052      1050      1053      1053      1050      1047
      1054      1053      1056      1054      1053      1055      1055      1053      1056
      1056      1059      1062      1056      1059      1061      1056      1059      1060
      1057      1056      1053      1057      1056      1059      1057      1056      1058
      1058      1056      1053      1058      1056      1059      1059      1056      1053
      1060      1059      1062      1060      1059      1061      1061      1059      1062
      1062      1065      1068      1062      1065      1067      1062      1065      1066
      1063      1062      1059      1063      1062      1065      1063      1062      1064
      1064      1062      1059      1064      1062      1065      1065      1062      1059
      1066      1065      1068      1066      1065      1067      1067      1065      1068
      1068      1071      1074      1068      1071      1073      1068      1071      1072
      1069      1068      1065      1069      1068      1071      1069      1068      1070
      1070      1068      1065      1070      1068      1071      1071      1068      1065
      1072      1071      1074      1072      1071      1073      1073      1071      1074
      1074      1077      1080      1074      1077      1079      1074      1077      1078
      1075      1074      1071      1075      1074      1077      1075      1074      1076
      1076      1074      1071      1076      1074      1077      1077      1074      1071
      1078      1077      1080      1078      1077      1079      1079      1077      1080
      1080      1083      1086      1080      1083      1085      1081      1080      1077
      1081      1080      1083      1081      1080      1082      1082      1080      1077
      1082      1080      1083      1083      1080      1077      1084      1083      1086
      1084      1083      1085      1084      1083      1080      1085      1083      1086
      1087      1091      1094      1087      1091      1093      1087      1091      1092
      1088      1087      1091      1088      1087      1090      1089      1087      1091
      1089      1087      1090      1089      1087      1088      1090      1087      1091
      1092      1091      1094      1092      1091      1093      1093      1091      1094
      1094      1097      1100      1094      1097      1099      1094      1097      1098
      1095      1094      1091      1095      1094      1097      1095      1094      1096
      1096      1094      1091      1096      1094      1097      1097      1094      1091
      1098      1097      1100      1098      1097      1099      1099      1097      1100
      1100      1103      1106      1100      1103      1105      1100      1103      1104
      1101      1100      1097      1101      1100      1103      1101      1100      1102
      1102      1100      1097      1102      1100      1103      1103      1100      1097
      1104      1103      1106      1104      1103      1105      1105      1103      1106
      1106      1109      1112      1106      1109      1111      1106      1109      1110
      1107      1106      1103      1107      1106      1109      1107      1106      1108
      1108      1106      1103      1108      1106      1109      1109      1106      1103
      1110      1109      1112      1110      1109      1111      1111      1109      1112
      1112      1115      1118      1112      1115      1117      1112      1115      1116
      1113      1112      1109      1113      1112      1115      1113      1112      1114
      1114      1112      1109      1114      1112      1115      1115      1112      1109
      1116      1115      1118      1116      1115      1117      1117      1115      1118
      1118      1121      1124      1118      1121      1123      1118      1121      1122
      1119      1118      1115      1119      1118      1121      1119      1118      1120
      1120      1118      1115      1120      1118      1121      1121      1118      1115
      1122      1121      1124      1122      1121      1123      1123      1121      1124
      1124      1127      1130      1124      1127      1129      1124      1127      1128
      1125      1124      1121      1125      1124      1127      1125      1124      1126
      1126      1124      1121      1126      1124      1127      1127      1124      1121
      1128      1127      1130      1128      1127      1129      1129      1127      1130
      1130      1133      1136      1130      1133      1135      1130      1133      1134
      1131      1130      1127      1131      1130      1133      1131      1130      1132
      1132      1130      1127      1132      1130      1133      1133      1130      1127
      1134      1133      1136      1134      1133      1135      1135      1133      1136
      1136      1139      1142      1136      1139      1141      1136      1139      1140
      1137      1136      1133      1137      1136      1139      1137      1136      1138
      1138      1136      1133      1138      1136      1139      1139      1136      1133
      1140      1139      1142      1140      1139      1141      1141      1139      1142
      1142      1145      1148      1142      1145      1147      1142      1145      1146
      1143      1142      1139      1143      1142      1145      1143      1142      1144
      1144      1142      1139      1144      1142      1145      1145      1142      1139
      1146      1145      1148      1146      1145      1147      1147      1145      1148
      1148      1151      1154      1148      1151      1153      1148      1151      1152
      1149      1148      1145      1149      1148      1151      1149      1148      1150
      1150      1148      1145      1150      1148      1151      1151      1148      1145
      1152      1151      1154      1152      1151      1153      1153      1151      1154
      1154      1157      1160      1154      1157      1159      1154      1157      1158
      1155      1154      1151      1155      1154      1157      1155      1154      1156
      1156      1154      1151      1156      1154      1157      1157      1154      1151
      1158      1157      1160      1158      1157      1159      1159      1157      1160
      1160      1163      1166      1160      1163      1165      1160      1163      1164
      1161      1160      1157      1161      1160      1163      1161      1160      1162
      1162      1160      1157      1162      1160      1163      1163      1160      1157
      1164      1163      1166      1164      1163      1165      1165      1163      1166
      1166      1169      1172      1166      1169      1171      1166      1169      1170
      1167      1166      1163      1167      1166      1169      1167      1166      1168
      1168      1166      1163      1168      1166      1169      1169      1166      1163
      1170      1169      1172      1170      1169      1171      1171      1169      1172
      1172      1175      1178      1172      1175      1177      1172      1175      1176
      1173      1172      1169      1173      1172      1175      1173      1172      1174
      1174      1172      1169      1174      1172      1175      1175      1172      1169
      1176      1175      1178      1176      1175      1177      1177      1175      1178
      1178      1181      1184      1178      1181      1183      1178      1181      1182
      1179      1178      1175      1179      1178      1181      1179      1178      1180
      1180      1178      1175      1180      1178      1181      1181      1178      1175
      1182      1181      1184      1182      1181      1183      1183      1181      1184
      1184      1187      1190      1184      1187      1189      1184      1187      1188
      1185      1184      1181      1185      1184      1187      1185      1184      1186
      1186      1184      1181      1186      1184      1187      1187      1184      1181
      1188      1187      1190      1188      1187      1189      1189      1187      1190
      1190      1193      1196      1190      1193      1195      1190      1193      1194
      1191      1190      1187      1191      1190      1193      1191      1190      1192
      1192      1190      1187      1192      1190      1193      1193      1190      1187
      1194      1193      1196      1194      1193      1195      1195      1193      1196
      1196      1199      1202      1196      1199      1201      1196      1199      1200
      1197      1196      1193      1197      1196      1199      1197      1196      1198
      1198      1196      1193      1198      1196      1199      1199      1196      1193
      1200      1199      1202      1200      1199      1201      1201      1199      1202
      1202      1205      1208      1202      1205      1207      1202      1205      1206
      1203      1202      1199      1203      1202      1205      1203      1202      1204
      1204      1202      1199      1204      1202      1205      1205      1202      1199
      1206      1205      1208      1206      1205      1207      1207      1205      1208
      1208      1211      1214      1208      1211      1213      1208      1211      1212
      1209      1208      1205      1209      1208      1211      1209      1208      1210
      1210      1208      1205      1210      1208      1211      1211      1208      1205
      1212      1211      1214      1212      1211      1213      1213      1211      1214
      1214      1217      1220      1214      1217      1219      1214      1217      1218
      1215      1214      1211      1215      1214      1217      1215      1214      1216
      1216      1214      1211      1216      1214      1217      1217      1214      1211
      1218      1217      1220      1218      1217      1219      1219      1217      1220
      1220      1223      1226      1220      1223      1225      1220      1223      1224
      1221      1220      1217      1221      1220      1223      1221      1220      1222
      1222      1220      1217      1222      1220      1223      1223      1220      1217
      1224      1223      1226      1224      1223      1225      1225      1223      1226
      1226      1229      1232      1226      1229      1231      1226      1229      1230
      1227      1226      1223      1227      1226      1229      1227      1226      1228
      1228      1226      1223      1228      1226      1229      1229      1226      1223
      1230      1229      1232      1230      1229      1231      1231      1229      1232
      1232      1235      1238      1232      1235      1237      1232      1235      1236
      1233      1232      1229      1233      1232      1235      1233      1232      1234
      1234      1232      1229      1234      1232      1235      1235      1232      1229
      1236      1235      1238      1236      1235      1237      1237      1235      1238
      1238      1241      1244      1238      1241      1243      1238      1241      1242
      1239      1238      1235      1239      1238      1241      1239      1238      1240
      1240      1238      1235      1240      1238      1241      1241      1238      1235
      1242      1241      1244      1242      1241      1243      1243      1241      1244
      1244      1247      1250      1244      1247      1249      1244      1247      1248
      1245      1244      1241      1245      1244      1247      1245      1244      1246
      1246      1244      1241      1246      1244      1247      1247      1244      1241
      1248      1247      1250      1248      1247      1249      1249      1247      1250
      1250      1253      1256      1250      1253      1255      1250      1253      1254
      1251      1250      1247      1251      1250      1253      1251      1250      1252
      1252      1250      1247      1252      1250      1253      1253      1250      1247
      1254      1253      1256      1254      1253      1255      1255      1253      1256
      1256      1259      1262      1256      1259      1261      1256      1259      1260
      1257      1256      1253      1257      1256      1259      1257      1256      1258
      1258      1256      1253      1258      1256      1259      1259      1256      1253
      1260      1259      1262      1260      1259      1261      1261      1259      1262
      1262      1265      1268      1262      1265      1267      1262      1265      1266
      1263      1262      1259      1263      1262      1265      1263      1262      1264
      1264      1262      1259      1264      1262      1265      1265      1262      1259
      1266      1265      1268      1266      1265      1267      1267      1265      1268
      1268      1271      1274      1268      1271      1273      1268      1271      1272
      1269      1268      1265      1269      1268      1271      1269      1268      1270
      1270      1268      1265      1270      1268      1271      1271      1268      1265
      1272      1271      1274      1272      1271      1273      1273      1271      1274
      1274      1277      1280      1274      1277      1279      1274      1277      1278
      1275      1274      1271      1275      1274      1277      1275      1274      1276
      1276      1274      1271      1276      1274      1277      1277      1274      1271
      1278      1277      1280      1278      1277      1279      1279      1277      1280
      1280      1283      1286      1280      1283      1285      1280      1283      1284
      1281      1280      1277      1281      1280      1283      1281      1280      1282
      1282      1280      1277      1282      1280      1283      1283      1280      1277
      1284      1283      1286      1284      1283      1285      1285      1283      1286
      1286      1289      1292      1286      1289      1291      1286      1289      1290
      1287      1286      1283      1287      1286      1289      1287      1286      1288
      1288      1286      1283      1288      1286      1289      1289      1286      1283
      1290      1289      1292      1290      1289      1291      1291      1289      1292
      1292      1295      1298      1292      1295      1297      1292      1295      1296
      1293      1292      1289      1293      1292      1295      1293      1292      1294
      1294      1292      1289      1294      1292      1295      1295      1292      1289
      1296      1295      1298      1296      1295      1297      1297      1295      1298
      1298      1301      1304      1298      1301      1303      1298      1301      1302
      1299      1298      1295      1299      1298      1301      1299      1298      1300
      1300      1298      1295      1300      1298      1301      1301      1298      1295
      1302      1301      1304      1302      1301      1303      1303      1301      1304
      1304      1307      1310      1304      1307      1309      1304      1307      1308
      1305      1304      1301      1305      1304      1307      1305      1304      1306
      1306      1304      1301      1306      1304      1307      1307      1304      1301
      1308      1307      1310      1308      1307      1309      1309      1307      1310
      1310      1313      1316      1310      1313      1315      1310      1313      1314
      1311      1310      1307      1311      1310      1313      1311      1310      1312
      1312      1310      1307      1312      1310      1313      1313      1310      1307
      1314      1313      1316      1314      1313      1315      1315      1313      1316
      1316      1319      1322      1316      1319      1321      1316      1319      1320
      1317      1316      1313      1317      1316      1319      1317      1316      1318
      1318      1316      1313      1318      1316      1319      1319      1316      1313
      1320      1319      1322      1320      1319      1321      1321      1319      1322
      1322      1325      1328      1322      1325      1327      1322      1325      1326
      1323      1322      1319      1323      1322      1325      1323      1322      1324
      1324      1322      1319      1324      1322      1325      1325      1322      1319
      1326      1325      1328      1326      1325      1327      1327      1325      1328
      1328      1331      1334      1328      1331      1333      1328      1331      1332
      1329      1328      1325      1329      1328      1331      1329      1328      1330
      1330      1328      1325      1330      1328      1331      1331      1328      1325
      1332      1331      1334      1332      1331      1333      1333      1331      1334
      1334      1337      1340      1334      1337      1339      1334      1337      1338
      1335      1334      1331      1335      1334      1337      1335      1334      1336
      1336      1334      1331      1336      1334      1337      1337      1334      1331
      1338      1337      1340      1338      1337      1339      1339      1337      1340
      1340      1343      1346      1340      1343      1345      1340      1343      1344
      1341      1340      1337      1341      1340      1343      1341      1340      1342
      1342      1340      1337      1342      1340      1343      1343      1340      1337
      1344      1343      1346      1344      1343      1345      1345      1343      1346
      1346      1349      1352      1346      1349      1351      1346      1349      1350
      1347      1346      1343      1347      1346      1349      1347      1346      1348
      1348      1346      1343      1348      1346      1349      1349      1346      1343
      1350      1349      1352      1350      1349      1351      1351      1349      1352
      1352      1355      1358      1352      1355      1357      1352      1355      1356
      1353      1352      1349      1353      1352      1355      1353      1352      1354
      1354      1352      1349      1354      1352      1355      1355      1352      1349
      1356      1355      1358      1356      1355      1357      1357      1355      1358
      1358      1361      1364      1358      1361      1363      1358      1361      1362
      1359      1358      1355      1359      1358      1361      1359      1358      1360
      1360      1358      1355      1360      1358      1361      1361      1358      1355
      1362      1361      1364      1362      1361      1363      1363      1361      1364
      1364      1367      1370      1364      1367      1369      1364      1367      1368
      1365      1364      1361      1365      1364      1367      1365      1364      1366
      1366      1364      1361      1366      1364      1367      1367      1364      1361
      1368      1367      1370      1368      1367      1369      1369      1367      1370
      1370      1373      1376      1370      1373      1375      1370      1373      1374
      1371      1370      1367      1371      1370      1373      1371      1370      1372
      1372      1370      1367      1372      1370      1373      1373      1370      1367
      1374      1373      1376      1374      1373      1375      1375      1373      1376
      1376      1379      1382      1376      1379      1381      1376      1379      1380
      1377      1376      1373      1377      1376      1379      1377      1376      1378
      1378      1376      1373      1378      1376      1379      1379      1376      1373
      1380      1379      1382      1380      1379      1381      1381      1379      1382
      1382      1385      1388      1382      1385      1387      1382      1385      1386
      1383      1382      1379      1383      1382      1385      1383      1382      1384
      1384      1382      1379      1384      1382      1385      1385      1382      1379
      1386      1385      1388      1386      1385      1387      1387      1385      1388
      1388      1391      1394      1388      1391      1393      1388      1391      1392
      1389      1388      1385      1389      1388      1391      1389      1388      1390
      1390      1388      1385      1390      1388      1391      1391      1388      1385
      1392      1391      1394      1392      1391      1393      1393      1391      1394
      1394      1397      1400      1394      1397      1399      1394      1397      1398
      1395      1394      1391      1395      1394      1397      1395      1394      1396
      1396      1394      1391      1396      1394      1397      1397      1394      1391
      1398      1397      1400      1398      1397      1399      1399      1397      1400
      1400      1403      1406      1400      1403      1405      1400      1403      1404
      1401      1400      1397      1401      1400      1403      1401      1400      1402
      1402      1400      1397      1402      1400      1403      1403      1400      1397
      1404      1403      1406      1404      1403      1405      1405      1403      1406
      1406      1409      1412      1406      1409      1411      1406      1409      1410
      1407      1406      1403      1407      1406      1409      1407      1406      1408
      1408      1406      1403      1408      1406      1409      1409      1406      1403
      1410      1409      1412      1410      1409      1411      1411      1409      1412
      1412      1415      1418      1412      1415      1417      1412      1415      1416
      1413      1412      1409      1413      1412      1415      1413      1412      1414
      1414      1412      1409      1414      1412      1415      1415      1412      1409
      1416      1415      1418      1416      1415      1417      1417      1415      1418
      1418      1421      1424      1418      1421      1423      1418      1421      1422
      1419      1418      1415      1419      1418      1421      1419      1418      1420
      1420      1418      1415      1420      1418      1421      1421      1418      1415
      1422      1421      1424      1422      1421      1423      1423      1421      1424
      1424      1427      1430      1424      1427      1429      1424      1427      1428
      1425      1424      1421      1425      1424      1427      1425      1424      1426
      1426      1424      1421      1426      1424      1427      1427      1424      1421
      1428      1427      1430      1428      1427      1429      1429      1427      1430
      1430      1433      1436      1430      1433      1435      1430      1433      1434
      1431      1430      1427      1431      1430      1433      1431      1430      1432
      1432      1430      1427      1432      1430      1433      1433      1430      1427
      1434      1433      1436      1434      1433      1435      1435      1433      1436
      1436      1439      1442      1436      1439      1441      1436      1439      1440
      1437      1436      1433      1437      1436      1439      1437      1436      1438
      1438      1436      1433      1438      1436      1439      1439      1436      1433
      1440      1439      1442      1440      1439      1441      1441      1439      1442
      1442      1445      1448      1442      1445      1447      1443      1442      1439
      1443      1442      1445      1443      1442      1444      1444      1442      1439
      1444      1442      1445      1445      1442      1439      1446      1445      1448
      1446      1445      1447      1446      1445      1442      1447      1445      1448
      1449      1453      1456      1449      1453      1455      1449      1453      1454
      1450      1449      1453      1450      1449      1452      1451      1449      1453
      1451      1449      1452      1451      1449      1450      1452      1449      1453
      1454      1453      1456      1454      1453      1455      1455      1453      1456
      1456      1459      1462      1456      1459      1461      1456      1459      1460
      1457      1456      1453      1457      1456      1459      1457      1456      1458
      1458      1456      1453      1458      1456      1459      1459      1456      1453
      1460      1459      1462      1460      1459      1461      1461      1459      1462
      1462      1465      1468      1462      1465      1467      1462      1465      1466
      1463      1462      1459      1463      1462      1465      1463      1462      1464
      1464      1462      1459      1464      1462      1465      1465      1462      1459
      1466      1465      1468      1466      1465      1467      1467      1465      1468
      1468      1471      1474      1468      1471      1473      1468      1471      1472
      1469      1468      1465      1469      1468      1471      1469      1468      1470
      1470      1468      1465      1470      1468      1471      1471      1468      1465
      1472      1471      1474      1472      1471      1473      1473      1471      1474
      1474      1477      1480      1474      1477      1479      1474      1477      1478
      1475      1474      1471      1475      1474      1477      1475      1474      1476
      1476      1474      1471      1476      1474      1477      1477      1474      1471
      1478      1477      1480      1478      1477      1479      1479      1477      1480
      1480      1483      1486      1480      1483      1485      1480      1483      1484
      1481      1480      1477      1481      1480      1483      1481      1480      1482
      1482      1480      1477      1482      1480      1483      1483      1480      1477
      1484      1483      1486      1484      1483      1485      1485      1483      1486
      1486      1489      1492      1486      1489      1491      1486      1489      1490
      1487      1486      1483      1487      1486      1489      1487      1486      1488
      1488      1486      1483      1488      1486      1489      1489      1486      1483
      1490      1489      1492      1490      1489      1491      1491      1489      1492
      1492      1495      1498      1492      1495      1497      1492      1495      1496
      1493      1492      1489      1493      1492      1495      1493      1492      1494
      1494      1492      1489      1494      1492      1495      1495      1492      1489
      1496      1495      1498      1496      1495      1497      1497      1495      1498
      1498      1501      1504      1498      1501      1503      1498      1501      1502
      1499      1498      1495      1499      1498      1501      1499      1498      1500
      1500      1498      1495      1500      1498      1501      1501      1498      1495
      1502      1501      1504      1502      1501      1503      1503      1501      1504
      1504      1507      1510      1504      1507      1509      1504      1507      1508
      1505      1504      1501      1505      1504      1507      1505      1504      1506
      1506      1504      1501      1506      1504      1507      1507      1504      1501
      1508      1507      1510      1508      1507      1509      1509      1507      1510
      1510      1513      1516      1510      1513      1515      1510      1513      1514
      1511      1510      1507      1511      1510      1513      1511      1510      1512
      1512      1510      1507      1512      1510      1513      1513      1510      1507
      1514      1513      1516      1514      1513      1515      1515      1513      1516
      1516      1519      1522      1516      1519      1521      1516      1519      1520
      1517      1516      1513      1517      1516      1519      1517      1516      1518
      1518      1516      1513      1518      1516      1519      1519      1516      1513
      1520      1519      1522      1520      1519      1521      1521      1519      1522
      1522      1525      1528      1522      1525      1527      1522      1525      1526
      1523      1522      1519      1523      1522      1525      1523      1522      1524
      1524      1522      1519      1524      1522      1525      1525      1522      1519
      1526      1525      1528      1526      1525      1527      1527      1525      1528
      1528      1531      1534      1528      1531      1533      1528      1531      1532
      1529      1528      1525      1529      1528      1531      1529      1528      1530
      1530      1528      1525      1530      1528      1531      1531      1528      1525
      1532      1531      1534      1532      1531      1533      1533      1531      1534
      1534      1537      1540      1534      1537      1539      1534      1537      1538
      1535      1534      1531      1535      1534      1537      1535      1534      1536
      1536      1534      1531      1536      1534      1537      1537      1534      1531
      1538      1537      1540      1538      1537      1539      1539      1537      1540
      1540      1543      1546      1540      1543      1545      1540      1543      1544
      1541      1540      1537      1541      1540      1543      1541      1540      1542
      1542      1540      1537      1542      1540      1543      1543      1540      1537
      1544      1543      1546      1544      1543      1545      1545      1543      1546
      1546      1549      1552      1546      1549      1551      1546      1549      1550
      1547      1546      1543      1547      1546      1549      1547      1546      1548
      1548      1546      1543      1548      1546      1549      1549      1546      1543
      1550      1549      1552      1550      1549      1551      1551      1549      1552
      1552      1555      1558      1552      1555      1557      1552      1555      1556
      1553      1552      1549      1553      1552      1555      1553      1552      1554
      1554      1552      1549      1554      1552      1555      1555      1552      1549
      1556      1555      1558      1556      1555      1557      1557      1555      1558
      1558      1561      1564      1558      1561      1563      1558      1561      1562
      1559      1558      1555      1559      1558      1561      1559      1558      1560
      1560      1558      1555      1560      1558      1561      1561      1558      1555
      1562      1561      1564      1562      1561      1563      1563      1561      1564
      1564      1567      1570      1564      1567      1569      1564      1567      1568
      1565      1564      1561      1565      1564      1567      1565      1564      1566
      1566      1564      1561      1566      1564      1567      1567      1564      1561
      1568      1567      1570      1568      1567      1569      1569      1567      1570
      1570      1573      1576      1570      1573      1575      1570      1573      1574
      1571      1570      1567      1571      1570      1573      1571      1570      1572
      1572      1570      1567      1572      1570      1573      1573      1570      1567
      1574      1573      1576      1574      1573      1575      1575      1573      1576
      1576      1579      1582      1576      1579      1581      1576      1579      1580
      1577      1576      1573      1577      1576      1579      1577      1576      1578
      1578      1576      1573      1578      1576      1579      1579      1576      1573
      1580      1579      1582      1580      1579      1581      1581      1579      1582
      1582      1585      1588      1582      1585      1587      1582      1585      1586
      1583      1582      1579      1583      1582      1585      1583      1582      1584
      1584      1582      1579      1584      1582      1585      1585      1582      1579
      1586      1585      1588      1586      1585      1587      1587      1585      1588
      1588      1591      1594      1588      1591      1593      1588      1591      1592
      1589      1588      1585      1589      1588      1591      1589      1588      1590
      1590      1588      1585      1590      1588      1591      1591      1588      1585
      1592      1591      1594      1592      1591      1593      1593      1591      1594
      1594      1597      1600      1594      1597      1599      1594      1597      1598
      1595      1594      1591      1595      1594      1597      1595      1594      1596
      1596      1594      1591      1596      1594      1597      1597      1594      1591
      1598      1597      1600      1598      1597      1599      1599      1597      1600
      1600      1603      1606      1600      1603      1605      1600      1603      1604
      1601      1600      1597      1601      1600      1603      1601      1600      1602
      1602      1600      1597      1602      1600      1603      1603      1600      1597
      1604      1603      1606      1604      1603      1605      1605      1603      1606
      1606      1609      1612      1606      1609      1611      1606      1609      1610
      1607      1606      1603      1607      1606      1609      1607      1606      1608
      1608      1606      1603      1608      1606      1609      1609      1606      1603
      1610      1609      1612      1610      1609      1611      1611      1609      1612
      1612      1615      1618      1612      1615      1617      1612      1615      1616
      1613      1612      1609      1613      1612      1615      1613      1612      1614
      1614      1612      1609      1614      1612      1615      1615      1612      1609
      1616      1615      1618      1616      1615      1617      1617      1615      1618
      1618      1621      1624      1618      1621      1623      1618      1621      1622
      1619      1618      1615      1619      1618      1621      1619      1618      1620
      1620      1618      1615      1620      1618      1621      1621      1618      1615
      1622      1621      1624      1622      1621      1623      1623      1621      1624
      1624      1627      1630      1624      1627      1629      1624      1627      1628
      1625      1624      1621      1625      1624      1627      1625      1624      1626
      1626      1624      1621      1626      1624      1627      1627      1624      1621
      1628      1627      1630      1628      1627      1629      1629      1627      1630
      1630      1633      1636      1630      1633      1635      1630      1633      1634
      1631      1630      1627      1631      1630      1633      1631      1630      1632
      1632      1630      1627      1632      1630      1633      1633      1630      1627
      1634      1633      1636      1634      1633      1635      1635      1633      1636
      1636      1639      1642      1636      1639      1641      1636      1639      1640
      1637      1636      1633      1637      1636      1639      1637      1636      1638
      1638      1636      1633      1638      1636      1639      1639      1636      1633
      1640      1639      1642      1640      1639      1641      1641      1639      1642
      1642      1645      1648      1642      1645      1647      1642      1645      1646
      1643      1642      1639      1643      1642      1645      1643      1642      1644
      1644      1642      1639      1644      1642      1645      1645      1642      1639
      1646      1645      1648      1646      1645      1647      1647      1645      1648
      1648      1651      1654      1648      1651      1653      1648      1651      1652
      1649      1648      1645      1649      1648      1651      1649      1648      1650
      1650      1648      1645      1650      1648      1651      1651      1648      1645
      1652      1651      1654      1652      1651      1653      1653      1651      1654
      1654      1657      1660      1654      1657      1659      1654      1657      1658
      1655      1654      1651      1655      1654      1657      1655      1654      1656
      1656      1654      1651      1656      1654      1657      1657      1654      1651
      1658      1657      1660      1658      1657      1659      1659      1657      1660
      1660      1663      1666      1660      1663      1665      1660      1663      1664
      1661      1660      1657      1661      1660      1663      1661      1660      1662
      1662      1660      1657      1662      1660      1663      1663      1660      1657
      1664      1663      1666      1664      1663      1665      1665      1663      1666
      1666      1669      1672      1666      1669      1671      1666      1669      1670
      1667      1666      1663      1667      1666      1669      1667      1666      1668
      1668      1666      1663      1668      1666      1669      1669      1666      1663
      1670      1669      1672      1670      1669      1671      1671      1669      1672
      1672      1675      1678      1672      1675      1677      1672      1675      1676
      1673      1672      1669      1673      1672      1675      1673      1672      1674
      1674      1672      1669      1674      1672      1675      1675      1672      1669
      1676      1675      1678      1676      1675      1677      1677      1675      1678
      1678      1681      1684      1678      1681      1683      1678      1681      1682
      1679      1678      1675      1679      1678      1681      1679      1678      1680
      1680      1678      1675      1680      1678      1681      1681      1678      1675
      1682      1681      1684      1682      1681      1683      1683      1681      1684
      1684      1687      1690      1684      1687      1689      1684      1687      1688
      1685      1684      1681      1685      1684      1687      1685      1684      1686
      1686      1684      1681      1686      1684      1687      1687      1684      1681
      1688      1687      1690      1688      1687      1689      1689      1687      1690
      1690      1693      1696      1690      1693      1695      1690      1693      1694
      1691      1690      1687      1691      1690      1693      1691      1690      1692
      1692      1690      1687      1692      1690      1693      1693      1690      1687
      1694      1693      1696      1694      1693      1695      1695      1693      1696
      1696      1699      1702      1696      1699      1701      1696      1699      1700
      1697      1696      1693      1697      1696      1699      1697      1696      1698
      1698      1696      1693      1698      1696      1699      1699      1696      1693
      1700      1699      1702      1700      1699      1701      1701      1699      1702
      1702      1705      1708      1702      1705      1707      1702      1705      1706
      1703      1702      1699      1703      1702      1705      1703      1702      1704
      1704      1702      1699      1704      1702      1705      1705      1702      1699
      1706      1705      1708      1706      1705      1707      1707      1705      1708
      1708      1711      1714      1708      1711      1713      1708      1711      1712
      1709      1708      1705      1709      1708      1711      1709      1708      1710
      1710      1708      1705      1710      1708      1711      1711      1708      1705
      1712      1711      1714      1712      1711      1713      1713      1711      1714
      1714      1717      1720      1714      1717      1719      1714      1717      1718
      1715      1714      1711      1715      1714      1717      1715      1714      1716
      1716      1714      1711      1716      1714      1717      1717      1714      1711
      1718      1717      1720      1718      1717      1719      1719      1717      1720
      1720      1723      1726      1720      1723      1725      1720      1723      1724
      1721      1720      1717      1721      1720      1723      1721      1720      1722
      1722      1720      1717      1722      1720      1723      1723      1720      1717
      1724      1723      1726      1724      1723      1725      1725      1723      1726
      1726      1729      1732      1726      1729      1731      1726      1729      1730
      1727      1726      1723      1727      1726      1729      1727      1726      1728
      1728      1726      1723      1728      1726      1729      1729      1726      1723
      1730      1729      1732      1730      1729      1731      1731      1729      1732
      1732      1735      1738      1732      1735      1737      1732      1735      1736
      1733      1732      1729      1733      1732      1735      1733      1732      1734
      1734      1732      1729      1734      1732      1735      1735      1732      1729
      1736      1735      1738      1736      1735      1737      1737      1735      1738
      1738      1741      1744      1738      1741      1743      1738      1741      1742
      1739      1738      1735      1739      1738      1741      1739      1738      1740
      1740      1738      1735      1740      1738      1741      1741      1738      1735
      1742      1741      1744      1742      1741      1743      1743      1741      1744
      1744      1747      1750      1744      1747      1749      1744      1747      1748
      1745      1744      1741      1745      1744      1747      1745      1744      1746
      1746      1744      1741      1746      1744      1747      1747      1744      1741
      1748      1747      1750      1748      1747      1749      1749      1747      1750
      1750      1753      1756      1750      1753      1755      1750      1753      1754
      1751      1750      1747      1751      1750      1753      1751      1750      1752
      1752      1750      1747      1752      1750      1753      1753      1750      1747
      1754      1753      1756      1754      1753      1755      1755      1753      1756
      1756      1759      1762      1756      1759      1761      1756      1759      1760
      1757      1756      1753      1757      1756      1759      1757      1756      1758
      1758      1756      1753      1758      1756      1759      1759      1756      1753
      1760      1759      1762      1760      1759      1761      1761      1759      1762
      1762      1765      1768      1762      1765      1767      1762      1765      1766
      1763      1762      1759      1763      1762      1765      1763      1762      1764
      1764      1762      1759      1764      1762      1765      1765      1762      1759
      1766      1765      1768      1766      1765      1767      1767      1765      1768
      1768      1771      1774      1768      1771      1773      1768      1771      1772
      1769      1768      1765      1769      1768      1771      1769      1768      1770
      1770      1768      1765      1770      1768      1771      1771      1768      1765
      1772      1771      1774      1772      1771      1773      1773      1771      1774
      1774      1777      1780      1774      1777      1779      1774      1777      1778
      1775      1774      1771      1775      1774      1777      1775      1774      1776
      1776      1774      1771      1776      1774      1777      1777      1774      1771
      1778      1777      1780      1778      1777      1779      1779      1777      1780
      1780      1783      1786      1780      1783      1785      1780      1783      1784
      1781      1780      1777      1781      1780      1783      1781      1780      1782
      1782      1780      1777      1782      1780      1783      1783      1780      1777
      1784      1783      1786      1784      1783      1785      1785      1783      1786
      1786      1789      1792      1786      1789      1791      1786      1789      1790
      1787      1786      1783      1787      1786      1789      1787      1786      1788
      1788      1786      1783      1788      1786      1789      1789      1786      1783
      1790      1789      1792      1790      1789      1791      1791      1789      1792
      1792      1795      1798      1792      1795      1797      1792      1795      1796
      1793      1792      1789      1793      1792      1795      1793      1792      1794
      1794      1792      1789      1794      1792      1795      1795      1792      1789
      1796      1795      1798      1796      1795      1797      1797      1795      1798
      1798      1801      1804      1798      1801      1803      1798      1801      1802
      1799      1798      1795      1799      1798      1801      1799      1798      1800
      1800      1798      1795      1800      1798      1801      1801      1798      1795
      1802      1801      1804      1802      1801      1803      1803      1801      1804
      1804      1807      1810      1804      1807      1809      1805      1804      1801
      1805      1804      1807      1805      1804      1806      1806      1804      1801
      1806      1804      1807      1807      1804      1801      1808      1807      1810
      1808      1807      1809      1808      1807      1804      1809      1807      1810
      1811      1815      1818      1811      1815      1817      1811      1815      1816
      1812      1811      1815      1812      1811      1814      1813      1811      1815
      1813      1811      1814      1813      1811      1812      1814      1811      1815
      1816      1815      1818      1816      1815      1817      1817      1815      1818
      1818      1821      1824      1818      1821      1823      1818      1821      1822
      1819      1818      1815      1819      1818      1821      1819      1818      1820
      1820      1818      1815      1820      1818      1821      1821      1818      1815
      1822      1821      1824      1822      1821      1823      1823      1821      1824
      1824      1827      1830      1824      1827      1829      1824      1827      1828
      1825      1824      1821      1825      1824      1827      1825      1824      1826
      1826      1824      1821      1826      1824      1827      1827      1824      1821
      1828      1827      1830      1828      1827      1829      1829      1827      1830
      1830      1833      1836      1830      1833      1835      1830      1833      1834
      1831      1830      1827      1831      1830      1833      1831      1830      1832
      1832      1830      1827      1832      1830      1833      1833      1830      1827
      1834      1833      1836      1834      1833      1835      1835      1833      1836
      1836      1839      1842      1836      1839      1841      1836      1839      1840
      1837      1836      1833      1837      1836      1839      1837      1836      1838
      1838      1836      1833      1838      1836      1839      1839      1836      1833
      1840      1839      1842      1840      1839      1841      1841      1839      1842
      1842      1845      1848      1842      1845      1847      1842      1845      1846
      1843      1842      1839      1843      1842      1845      1843      1842      1844
      1844      1842      1839      1844      1842      1845      1845      1842      1839
      1846      1845      1848      1846      1845      1847      1847      1845      1848
      1848      1851      1854      1848      1851      1853      1848      1851      1852
      1849      1848      1845      1849      1848      1851      1849      1848      1850
      1850      1848      1845      1850      1848      1851      1851      1848      1845
      1852      1851      1854      1852      1851      1853      1853      1851      1854
      1854      1857      1860      1854      1857      1859      1854      1857      1858
      1855      1854      1851      1855      1854      1857      1855      1854      1856
      1856      1854      1851      1856      1854      1857      1857      1854      1851
      1858      1857      1860      1858      1857      1859      1859      1857      1860
      1860      1863      1866      1860      1863      1865      1860      1863      1864
      1861      1860      1857      1861      1860      1863      1861      1860      1862
      1862      1860      1857      1862      1860      1863      1863      1860      1857
      1864      1863      1866      1864      1863      1865      1865      1863      1866
      1866      1869      1872      1866      1869      1871      1866      1869      1870
      1867      1866      1863      1867      1866      1869      1867      1866      1868
      1868      1866      1863      1868      1866      1869      1869      1866      1863
      1870      1869      1872      1870      1869      1871      1871      1869      1872
      1872      1875      1878      1872      1875      1877      1872      1875      1876
      1873      1872      1869      1873      1872      1875      1873      1872      1874
      1874      1872      1869      1874      1872      1875      1875      1872      1869
      1876      1875      1878      1876      1875      1877      1877      1875      1878
      1878      1881      1884      1878      1881      1883      1878      1881      1882
      1879      1878      1875      1879      1878      1881      1879      1878      1880
      1880      1878      1875      1880      1878      1881      1881      1878      1875
      1882      1881      1884      1882      1881      1883      1883      1881      1884
      1884      1887      1890      1884      1887      1889      1884      1887      1888
      1885      1884      1881      1885      1884      1887      1885      1884      1886
      1886      1884      1881      1886      1884      1887      1887      1884      1881
      1888      1887      1890      1888      1887      1889      1889      1887      1890
      1890      1893      1896      1890      1893      1895      1890      1893      1894
      1891      1890      1887      1891      1890      1893      1891      1890      1892
      1892      1890      1887      1892      1890      1893      1893      1890      1887
      1894      1893      1896      1894      1893      1895      1895      1893      1896
      1896      1899      1902      1896      1899      1901      1896      1899      1900
      1897      1896      1893      1897      1896      1899      1897      1896      1898
      1898      1896      1893      1898      1896      1899      1899      1896      1893
      1900      1899      1902      1900      1899      1901      1901      1899      1902
      1902      1905      1908      1902      1905      1907      1902      1905      1906
      1903      1902      1899      1903      1902      1905      1903      1902      1904
      1904      1902      1899      1904      1902      1905      1905      1902      1899
      1906      1905      1908      1906      1905      1907      1907      1905      1908
      1908      1911      1914      1908      1911      1913      1908      1911      1912
      1909      1908      1905      1909      1908      1911      1909      1908      1910
      1910      1908      1905      1910      1908      1911      1911      1908      1905
      1912      1911      1914      1912      1911      1913      1913      1911      1914
      1914      1917      1920      1914      1917      1919      1914      1917      1918
      1915      1914      1911      1915      1914      1917      1915      1914      1916
      1916      1914      1911      1916      1914      1917      1917      1914      1911
      1918      1917      1920      1918      1917      1919      1919      1917      1920
      1920      1923      1926      1920      1923      1925      1920      1923      1924
      1921      1920      1917      1921      1920      1923      1921      1920      1922
      1922      1920      1917      1922      1920      1923      1923      1920      1917
      1924      1923      1926      1924      1923      1925      1925      1923      1926
      1926      1929      1932      1926      1929      1931      1926      1929      1930
      1927      1926      1923      1927      1926      1929      1927      1926      1928
      1928      1926      1923      1928      1926      1929      1929      1926      1923
      1930      1929      1932      1930      1929      1931      1931      1929      1932
      1932      1935      1938      1932      1935      1937      1932      1935      1936
      1933      1932      1929      1933      1932      1935      1933      1932      1934
      1934      1932      1929      1934      1932      1935      1935      1932      1929
      1936      1935      1938      1936      1935      1937      1937      1935      1938
      1938      1941      1944      1938      1941      1943      1938      1941      1942
      1939      1938      1935      1939      1938      1941      1939      1938      1940
      1940      1938      1935      1940      1938      1941      1941      1938      1935
      1942      1941      1944      1942      1941      1943      1943      1941      1944
      1944      1947      1950      1944      1947      1949      1944      1947      1948
      1945      1944      1941      1945      1944      1947      1945      1944      1946
      1946      1944      1941      1946      1944      1947      1947      1944      1941
      1948      1947      1950      1948      1947      1949      1949      1947      1950
      1950      1953      1956      1950      1953      1955      1950      1953      1954
      1951      1950      1947      1951      1950      1953      1951      1950      1952
      1952      1950      1947      1952      1950      1953      1953      1950      1947
      1954      1953      1956      1954      1953      1955      1955      1953      1956
      1956      1959      1962      1956      1959      1961      1956      1959      1960
      1957      1956      1953      1957      1956      1959      1957      1956      1958
      1958      1956      1953      1958      1956      1959      1959      1956      1953
      1960      1959      1962      1960      1959      1961      1961      1959      1962
      1962      1965      1968      1962      1965      1967      1962      1965      1966
      1963      1962      1959      1963      1962      1965      1963      1962      1964
      1964      1962      1959      1964      1962      1965      1965      1962      1959
      1966      1965      1968      1966      1965      1967      1967      1965      1968
      1968      1971      1974      1968      1971      1973      1968      1971      1972
      1969      1968      1965      1969      1968      1971      1969      1968      1970
      1970      1968      1965      1970      1968      1971      1971      1968      1965
      1972      1971      1974      1972      1971      1973      1973      1971      1974
      1974      1977      1980      1974      1977      1979      1974      1977      1978
      1975      1974      1971      1975      1974      1977      1975      1974      1976
      1976      1974      1971      1976      1974      1977      1977      1974      1971
      1978      1977      1980      1978      1977      1979      1979      1977      1980
      1980      1983      1986      1980      1983      1985      1980      1983      1984
      1981      1980      1977      1981      1980      1983      1981      1980      1982
      1982      1980      1977      1982      1980      1983      1983      1980      1977
      1984      1983      1986      1984      1983      1985      1985      1983      1986
      1986      1989      1992      1986      1989      1991      1986      1989      1990
      1987      1986      1983      1987      1986      1989      1987      1986      1988
      1988      1986      1983      1988      1986      1989      1989      1986      1983
      1990      1989      1992      1990      1989      1991      1991      1989      1992
      1992      1995      1998      1992      1995      1997      1992      1995      1996
      1993      1992      1989      1993      1992      1995      1993      1992      1994
      1994      1992      1989      1994      1992      1995      1995      1992      1989
      1996      1995      1998      1996      1995      1997      1997      1995      1998
      1998      2001      2004      1998      2001      2003      1998      2001      2002
      1999      1998      1995      1999      1998      2001      1999      1998      2000
      2000      1998      1995      2000      1998      2001      2001      1998      1995
      2002      2001      2004      2002      2001      2003      2003      2001      2004
      2004      2007      2010      2004      2007      2009      2004      2007      2008
      2005      2004      2001      2005      2004      2007      2005      2004      2006
      2006      2004      2001      2006      2004      2007      2007      2004      2001
      2008      2007      2010      2008      2007      2009      2009      2007      2010
      2010      2013      2016      2010      2013      2015      2010      2013      2014
      2011      2010      2007      2011      2010      2013      2011      2010      2012
      2012      2010      2007      2012      2010      2013      2013      2010      2007
      2014      2013      2016      2014      2013      2015      2015      2013      2016
      2016      2019      2022      2016      2019      2021      2016      2019      2020
      2017      2016      2013      2017      2016      2019      2017      2016      2018
      2018      2016      2013      2018      2016      2019      2019      2016      2013
      2020      2019      2022      2020      2019      2021      2021      2019      2022
      2022      2025      2028      2022      2025      2027      2022      2025      2026
      2023      2022      2019      2023      2022      2025      2023      2022      2024
      2024      2022      2019      2024      2022      2025      2025      2022      2019
      2026      2025      2028      2026      2025      2027      2027      2025      2028
      2028      2031      2034      2028      2031      2033      2028      2031      2032
      2029      2028      2025      2029      2028      2031      2029      2028      2030
      2030      2028      2025      2030      2028      2031      2031      2028      2025
      2032      2031      2034      2032      2031      2033      2033      2031      2034
      2034      2037      2040      2034      2037      2039      2034      2037      2038
      2035      2034      2031      2035      2034      2037      2035      2034      2036
      2036      2034      2031      2036      2034      2037      2037      2034      2031
      2038      2037      2040      2038      2037      2039      2039      2037      2040
      2040      2043      2046      2040      2043      2045      2040      2043      2044
      2041      2040      2037      2041      2040      2043      2041      2040      2042
      2042      2040      2037      2042      2040      2043      2043      2040      2037
      2044      2043      2046      2044      2043      2045      2045      2043      2046
      2046      2049      2052      2046      2049      2051      2046      2049      2050
      2047      2046      2043      2047      2046      2049      2047      2046      2048
      2048      2046      2043      2048      2046      2049      2049      2046      2043
      2050      2049      2052      2050      2049      2051      2051      2049      2052
      2052      2055      2058      2052      2055      2057      2052      2055      2056
      2053      2052      2049      2053      2052      2055      2053      2052      2054
      2054      2052      2049      2054      2052      2055      2055      2052      2049
      2056      2055      2058      2056      2055      2057      2057      2055      2058
      2058      2061      2064      2058      2061      2063      2058      2061      2062
      2059      2058      2055      2059      2058      2061      2059      2058      2060
      2060      2058      2055      2060      2058      2061      2061      2058      2055
      2062      2061      2064      2062      2061      2063      2063      2061      2064
      2064      2067      2070      2064      2067      2069      2064      2067      2068
      2065      2064      2061      2065      2064      2067      2065      2064      2066
      2066      2064      2061      2066      2064      2067      2067      2064      2061
      2068      2067      2070      2068      2067      2069      2069      2067      2070
      2070      2073      2076      2070      2073      2075      2070      2073      2074
      2071      2070      2067      2071      2070      2073      2071      2070      2072
      2072      2070      2067      2072      2070      2073      2073      2070      2067
      2074      2073      2076      2074      2073      2075      2075      2073      2076
      2076      2079      2082      2076      2079      2081      2076      2079      2080
      2077      2076      2073      2077      2076      2079      2077      2076      2078
      2078      2076      2073      2078      2076      2079      2079      2076      2073
      2080      2079      2082      2080      2079      2081      2081      2079      2082
      2082      2085      2088      2082      2085      2087      2082      2085      2086
      2083      2082      2079      2083      2082      2085      2083      2082      2084
      2084      2082      2079      2084      2082      2085      2085      2082      2079
      2086      2085      2088      2086      2085      2087      2087      2085      2088
      2088      2091      2094      2088      2091      2093      2088      2091      2092
      2089      2088      2085      2089      2088      2091      2089      2088      2090
      2090      2088      2085      2090      2088      2091      2091      2088      2085
      2092      2091      2094      2092      2091      2093      2093      2091      2094
      2094      2097      2100      2094      2097      2099      2094      2097      2098
      2095      2094      2091      2095      2094      2097      2095      2094      2096
      2096      2094      2091      2096      2094      2097      2097      2094      2091
      2098      2097      2100      2098      2097      2099      2099      2097      2100
      2100      2103      2106      2100      2103      2105      2100      2103      2104
      2101      2100      2097      2101      2100      2103      2101      2100      2102
      2102      2100      2097      2102      2100      2103      2103      2100      2097
      2104      2103      2106      2104      2103      2105      2105      2103      2106
      2106      2109      2112      2106      2109      2111      2106      2109      2110
      2107      2106      2103      2107      2106      2109      2107      2106      2108
      2108      2106      2103      2108      2106      2109      2109      2106      2103
      2110      2109      2112      2110      2109      2111      2111      2109      2112
      2112      2115      2118      2112      2115      2117      2112      2115      2116
      2113      2112      2109      2113      2112      2115      2113      2112      2114
      2114      2112      2109      2114      2112      2115      2115      2112      2109
      2116      2115      2118      2116      2115      2117      2117      2115      2118
      2118      2121      2124      2118      2121      2123      2118      2121      2122
      2119      2118      2115      2119      2118      2121      2119      2118      2120
      2120      2118      2115      2120      2118      2121      2121      2118      2115
      2122      2121      2124      2122      2121      2123      2123      2121      2124
      2124      2127      2130      2124      2127      2129      2124      2127      2128
      2125      2124      2121      2125      2124      2127      2125      2124      2126
      2126      2124      2121      2126      2124      2127      2127      2124      2121
      2128      2127      2130      2128      2127      2129      2129      2127      2130
      2130      2133      2136      2130      2133      2135      2130      2133      2134
      2131      2130      2127      2131      2130      2133      2131      2130      2132
      2132      2130      2127      2132      2130      2133      2133      2130      2127
      2134      2133      2136      2134      2133      2135      2135      2133      2136
      2136      2139      2142      2136      2139      2141      2136      2139      2140
      2137      2136      2133      2137      2136      2139      2137      2136      2138
      2138      2136      2133      2138      2136      2139      2139      2136      2133
      2140      2139      2142      2140      2139      2141      2141      2139      2142
      2142      2145      2148      2142      2145      2147      2142      2145      2146
      2143      2142      2139      2143      2142      2145      2143      2142      2144
      2144      2142      2139      2144      2142      2145      2145      2142      2139
      2146      2145      2148      2146      2145      2147      2147      2145      2148
      2148      2151      2154      2148      2151      2153      2148      2151      2152
      2149      2148      2145      2149      2148      2151      2149      2148      2150
      2150      2148      2145      2150      2148      2151      2151      2148      2145
      2152      2151      2154      2152      2151      2153      2153      2151      2154
      2154      2157      2160      2154      2157      2159      2154      2157      2158
      2155      2154      2151      2155      2154      2157      2155      2154      2156
      2156      2154      2151      2156      2154      2157      2157      2154      2151
      2158      2157      2160      2158      2157      2159      2159      2157      2160
      2160      2163      2166      2160      2163      2165      2160      2163      2164
      2161      2160      2157      2161      2160      2163      2161      2160      2162
      2162      2160      2157      2162      2160      2163      2163      2160      2157
      2164      2163      2166      2164      2163      2165      2165      2163      2166
      2166      2169      2172      2166      2169      2171      2167      2166      2163
      2167      2166      2169      2167      2166      2168      2168      2166      2163
      2168      2166      2169      2169      2166      2163      2170      2169      2172
      2170      2169      2171      2170      2169      2166      2171      2169      2172
      2173      2177      2180      2173      2177      2179      2173      2177      2178
      2174      2173      2177      2174      2173      2176      2175      2173      2177
      2175      2173      2176      2175      2173      2174      2176      2173      2177
      2178      2177      2180      2178      2177      2179      2179      2177      2180
      2180      2183      2186      2180      2183      2185      2180      2183      2184
      2181      2180      2177      2181      2180      2183      2181      2180      2182
      2182      2180      2177      2182      2180      2183      2183      2180      2177
      2184      2183      2186      2184      2183      2185      2185      2183      2186
      2186      2189      2192      2186      2189      2191      2186      2189      2190
      2187      2186      2183      2187      2186      2189      2187      2186      2188
      2188      2186      2183      2188      2186      2189      2189      2186      2183
      2190      2189      2192      2190      2189      2191      2191      2189      2192
      2192      2195      2198      2192      2195      2197      2192      2195      2196
      2193      2192      2189      2193      2192      2195      2193      2192      2194
      2194      2192      2189      2194      2192      2195      2195      2192      2189
      2196      2195      2198      2196      2195      2197      2197      2195      2198
      2198      2201      2204      2198      2201      2203      2198      2201      2202
      2199      2198      2195      2199      2198      2201      2199      2198      2200
      2200      2198      2195      2200      2198      2201      2201      2198      2195
      2202      2201      2204      2202      2201      2203      2203      2201      2204
      2204      2207      2210      2204      2207      2209      2204      2207      2208
      2205      2204      2201      2205      2204      2207      2205      2204      2206
      2206      2204      2201      2206      2204      2207      2207      2204      2201
      2208      2207      2210      2208      2207      2209      2209      2207      2210
      2210      2213      2216      2210      2213      2215      2210      2213      2214
      2211      2210      2207      2211      2210      2213      2211      2210      2212
      2212      2210      2207      2212      2210      2213      2213      2210      2207
      2214      2213      2216      2214      2213      2215      2215      2213      2216
      2216      2219      2222      2216      2219      2221      2216      2219      2220
      2217      2216      2213      2217      2216      2219      2217      2216      2218
      2218      2216      2213      2218      2216      2219      2219      2216      2213
      2220      2219      2222      2220      2219      2221      2221      2219      2222
      2222      2225      2228      2222      2225      2227      2222      2225      2226
      2223      2222      2219      2223      2222      2225      2223      2222      2224
      2224      2222      2219      2224      2222      2225      2225      2222      2219
      2226      2225      2228      2226      2225      2227      2227      2225      2228
      2228      2231      2234      2228      2231      2233      2228      2231      2232
      2229      2228      2225      2229      2228      2231      2229      2228      2230
      2230      2228      2225      2230      2228      2231      2231      2228      2225
      2232      2231      2234      2232      2231      2233      2233      2231      2234
      2234      2237      2240      2234      2237      2239      2234      2237      2238
      2235      2234      2231      2235      2234      2237      2235      2234      2236
      2236      2234      2231      2236      2234      2237      2237      2234      2231
      2238      2237      2240      2238      2237      2239      2239      2237      2240
      2240      2243      2246      2240      2243      2245      2240      2243      2244
      2241      2240      2237      2241      2240      2243      2241      2240      2242
      2242      2240      2237      2242      2240      2243      2243      2240      2237
      2244      2243      2246      2244      2243      2245      2245      2243      2246
      2246      2249      2252      2246      2249      2251      2246      2249      2250
      2247      2246      2243      2247      2246      2249      2247      2246      2248
      2248      2246      2243      2248      2246      2249      2249      2246      2243
      2250      2249      2252      2250      2249      2251      2251      2249      2252
      2252      2255      2258      2252      2255      2257      2252      2255      2256
      2253      2252      2249      2253      2252      2255      2253      2252      2254
      2254      2252      2249      2254      2252      2255      2255      2252      2249
      2256      2255      2258      2256      2255      2257      2257      2255      2258
      2258      2261      2264      2258      2261      2263      2258      2261      2262
      2259      2258      2255      2259      2258      2261      2259      2258      2260
      2260      2258      2255      2260      2258      2261      2261      2258      2255
      2262      2261      2264      2262      2261      2263      2263      2261      2264
      2264      2267      2270      2264      2267      2269      2264      2267      2268
      2265      2264      2261      2265      2264      2267      2265      2264      2266
      2266      2264      2261      2266      2264      2267      2267      2264      2261
      2268      2267      2270      2268      2267      2269      2269      2267      2270
      2270      2273      2276      2270      2273      2275      2270      2273      2274
      2271      2270      2267      2271      2270      2273      2271      2270      2272
      2272      2270      2267      2272      2270      2273      2273      2270      2267
      2274      2273      2276      2274      2273      2275      2275      2273      2276
      2276      2279      2282      2276      2279      2281      2276      2279      2280
      2277      2276      2273      2277      2276      2279      2277      2276      2278
      2278      2276      2273      2278      2276      2279      2279      2276      2273
      2280      2279      2282      2280      2279      2281      2281      2279      2282
      2282      2285      2288      2282      2285      2287      2282      2285      2286
      2283      2282      2279      2283      2282      2285      2283      2282      2284
      2284      2282      2279      2284      2282      2285      2285      2282      2279
      2286      2285      2288      2286      2285      2287      2287      2285      2288
      2288      2291      2294      2288      2291      2293      2288      2291      2292
      2289      2288      2285      2289      2288      2291      2289      2288      2290
      2290      2288      2285      2290      2288      2291      2291      2288      2285
      2292      2291      2294      2292      2291      2293      2293      2291      2294
      2294      2297      2300      2294      2297      2299      2294      2297      2298
      2295      2294      2291      2295      2294      2297      2295      2294      2296
      2296      2294      2291      2296      2294      2297      2297      2294      2291
      2298      2297      2300      2298      2297      2299      2299      2297      2300
      2300      2303      2306      2300      2303      2305      2300      2303      2304
      2301      2300      2297      2301      2300      2303      2301      2300      2302
      2302      2300      2297      2302      2300      2303      2303      2300      2297
      2304      2303      2306      2304      2303      2305      2305      2303      2306
      2306      2309      2312      2306      2309      2311      2306      2309      2310
      2307      2306      2303      2307      2306      2309      2307      2306      2308
      2308      2306      2303      2308      2306      2309      2309      2306      2303
      2310      2309      2312      2310      2309      2311      2311      2309      2312
      2312      2315      2318      2312      2315      2317      2312      2315      2316
      2313      2312      2309      2313      2312      2315      2313      2312      2314
      2314      2312      2309      2314      2312      2315      2315      2312      2309
      2316      2315      2318      2316      2315      2317      2317      2315      2318
      2318      2321      2324      2318      2321      2323      2318      2321      2322
      2319      2318      2315      2319      2318      2321      2319      2318      2320
      2320      2318      2315      2320      2318      2321      2321      2318      2315
      2322      2321      2324      2322      2321      2323      2323      2321      2324
      2324      2327      2330      2324      2327      2329      2324      2327      2328
      2325      2324      2321      2325      2324      2327      2325      2324      2326
      2326      2324      2321      2326      2324      2327      2327      2324      2321
      2328      2327      2330      2328      2327      2329      2329      2327      2330
      2330      2333      2336      2330      2333      2335      2330      2333      2334
      2331      2330      2327      2331      2330      2333      2331      2330      2332
      2332      2330      2327      2332      2330      2333      2333      2330      2327
      2334      2333      2336      2334      2333      2335      2335      2333      2336
      2336      2339      2342      2336      2339      2341      2336      2339      2340
      2337      2336      2333      2337      2336      2339      2337      2336      2338
      2338      2336      2333      2338      2336      2339      2339      2336      2333
      2340      2339      2342      2340      2339      2341      2341      2339      2342
      2342      2345      2348      2342      2345      2347      2342      2345      2346
      2343      2342      2339      2343      2342      2345      2343      2342      2344
      2344      2342      2339      2344      2342      2345      2345      2342      2339
      2346      2345      2348      2346      2345      2347      2347      2345      2348
      2348      2351      2354      2348      2351      2353      2348      2351      2352
      2349      2348      2345      2349      2348      2351      2349      2348      2350
      2350      2348      2345      2350      2348      2351      2351      2348      2345
      2352      2351      2354      2352      2351      2353      2353      2351      2354
      2354      2357      2360      2354      2357      2359      2354      2357      2358
      2355      2354      2351      2355      2354      2357      2355      2354      2356
      2356      2354      2351      2356      2354      2357      2357      2354      2351
      2358      2357      2360      2358      2357      2359      2359      2357      2360
      2360      2363      2366      2360      2363      2365      2360      2363      2364
      2361      2360      2357      2361      2360      2363      2361      2360      2362
      2362      2360      2357      2362      2360      2363      2363      2360      2357
      2364      2363      2366      2364      2363      2365      2365      2363      2366
      2366      2369      2372      2366      2369      2371      2366      2369      2370
      2367      2366      2363      2367      2366      2369      2367      2366      2368
      2368      2366      2363      2368      2366      2369      2369      2366      2363
      2370      2369      2372      2370      2369      2371      2371      2369      2372
      2372      2375      2378      2372      2375      2377      2372      2375      2376
      2373      2372      2369      2373      2372      2375      2373      2372      2374
      2374      2372      2369      2374      2372      2375      2375      2372      2369
      2376      2375      2378      2376      2375      2377      2377      2375      2378
      2378      2381      2384      2378      2381      2383      2378      2381      2382
      2379      2378      2375      2379      2378      2381      2379      2378      2380
      2380      2378      2375      2380      2378      2381      2381      2378      2375
      2382      2381      2384      2382      2381      2383      2383      2381      2384
      2384      2387      2390      2384      2387      2389      2384      2387      2388
      2385      2384      2381      2385      2384      2387      2385      2384      2386
      2386      2384      2381      2386      2384      2387      2387      2384      2381
      2388      2387      2390      2388      2387      2389      2389      2387      2390
      2390      2393      2396      2390      2393      2395      2390      2393      2394
      2391      2390      2387      2391      2390      2393      2391      2390      2392
      2392      2390      2387      2392      2390      2393      2393      2390      2387
      2394      2393      2396      2394      2393      2395      2395      2393      2396
      2396      2399      2402      2396      2399      2401      2396      2399      2400
      2397      2396      2393      2397      2396      2399      2397      2396      2398
      2398      2396      2393      2398      2396      2399      2399      2396      2393
      2400      2399      2402      2400      2399      2401      2401      2399      2402
      2402      2405      2408      2402      2405      2407      2402      2405      2406
      2403      2402      2399      2403      2402      2405      2403      2402      2404
      2404      2402      2399      2404      2402      2405      2405      2402      2399
      2406      2405      2408      2406      2405      2407      2407      2405      2408
      2408      2411      2414      2408      2411      2413      2408      2411      2412
      2409      2408      2405      2409      2408      2411      2409      2408      2410
      2410      2408      2405      2410      2408      2411      2411      2408      2405
      2412      2411      2414      2412      2411      2413      2413      2411      2414
      2414      2417      2420      2414      2417      2419      2414      2417      2418
      2415      2414      2411      2415      2414      2417      2415      2414      2416
      2416      2414      2411      2416      2414      2417      2417      2414      2411
      2418      2417      2420      2418      2417      2419      2419      2417      2420
      2420      2423      2426      2420      2423      2425      2420      2423      2424
      2421      2420      2417      2421      2420      2423      2421      2420      2422
      2422      2420      2417      2422      2420      2423      2423      2420      2417
      2424      2423      2426      2424      2423      2425      2425      2423      2426
      2426      2429      2432      2426      2429      2431      2426      2429      2430
      2427      2426      2423      2427      2426      2429      2427      2426      2428
      2428      2426      2423      2428      2426      2429      2429      2426      2423
      2430      2429      2432      2430      2429      2431      2431      2429      2432
      2432      2435      2438      2432      2435      2437      2432      2435      2436
      2433      2432      2429      2433      2432      2435      2433      2432      2434
      2434      2432      2429      2434      2432      2435      2435      2432      2429
      2436      2435      2438      2436      2435      2437      2437      2435      2438
      2438      2441      2444      2438      2441      2443      2438      2441      2442
      2439      2438      2435      2439      2438      2441      2439      2438      2440
      2440      2438      2435      2440      2438      2441      2441      2438      2435
      2442      2441      2444      2442      2441      2443      2443      2441      2444
      2444      2447      2450      2444      2447      2449      2444      2447      2448
      2445      2444      2441      2445      2444      2447      2445      2444      2446
      2446      2444      2441      2446      2444      2447      2447      2444      2441
      2448      2447      2450      2448      2447      2449      2449      2447      2450
      2450      2453      2456      2450      2453      2455      2450      2453      2454
      2451      2450      2447      2451      2450      2453      2451      2450      2452
      2452      2450      2447      2452      2450      2453      2453      2450      2447
      2454      2453      2456      2454      2453      2455      2455      2453      2456
      2456      2459      2462      2456      2459      2461      2456      2459      2460
      2457      2456      2453      2457      2456      2459      2457      2456      2458
      2458      2456      2453      2458      2456      2459      2459      2456      2453
      2460      2459      2462      2460      2459      2461      2461      2459      2462
      2462      2465      2468      2462      2465      2467      2462      2465      2466
      2463      2462      2459      2463      2462      2465      2463      2462      2464
      2464      2462      2459      2464      2462      2465      2465      2462      2459
      2466      2465      2468      2466      2465      2467      2467      2465      2468
      2468      2471      2474      2468      2471      2473      2468      2471      2472
      2469      2468      2465      2469      2468      2471      2469      2468      2470
      2470      2468      2465      2470      2468      2471      2471      2468      2465
      2472      2471      2474      2472      2471      2473      2473      2471      2474
      2474      2477      2480      2474      2477      2479      2474      2477      2478
      2475      2474      2471      2475      2474      2477      2475      2474      2476
      2476      2474      2471      2476      2474      2477      2477      2474      2471
      2478      2477      2480      2478      2477      2479      2479      2477      2480
      2480      2483      2486      2480      2483      2485      2480      2483      2484
      2481      2480      2477      2481      2480      2483      2481      2480      2482
      2482      2480      2477      2482      2480      2483      2483      2480      2477
      2484      2483      2486      2484      2483      2485      2485      2483      2486
      2486      2489      2492      2486      2489      2491      2486      2489      2490
      2487      2486      2483      2487      2486      2489      2487      2486      2488
      2488      2486      2483      2488      2486      2489      2489      2486      2483
      2490      2489      2492      2490      2489      2491      2491      2489      2492
      2492      2495      2498      2492      2495      2497      2492      2495      2496
      2493      2492      2489      2493      2492      2495      2493      2492      2494
      2494      2492      2489      2494      2492      2495      2495      2492      2489
      2496      2495      2498      2496      2495      2497      2497      2495      2498
      2498      2501      2504      2498      2501      2503      2498      2501      2502
      2499      2498      2495      2499      2498      2501      2499      2498      2500
      2500      2498      2495      2500      2498      2501      2501      2498      2495
      2502      2501      2504      2502      2501      2503      2503      2501      2504
      2504      2507      2510      2504      2507      2509      2504      2507      2508
      2505      2504      2501      2505      2504      2507      2505      2504      2506
      2506      2504      2501      2506      2504      2507      2507      2504      2501
      2508      2507      2510      2508      2507      2509      2509      2507      2510
      2510      2513      2516      2510      2513      2515      2510      2513      2514
      2511      2510      2507      2511      2510      2513      2511      2510      2512
      2512      2510      2507      2512      2510      2513      2513      2510      2507
      2514      2513      2516      2514      2513      2515      2515      2513      2516
      2516      2519      2522      2516      2519      2521      2516      2519      2520
      2517      2516      2513      2517      2516      2519      2517      2516      2518
      2518      2516      2513      2518      2516      2519      2519      2516      2513
      2520      2519      2522      2520      2519      2521      2521      2519      2522
      2522      2525      2528      2522      2525      2527      2522      2525      2526
      2523      2522      2519      2523      2522      2525      2523      2522      2524
      2524      2522      2519      2524      2522      2525      2525      2522      2519
      2526      2525      2528      2526      2525      2527      2527      2525      2528
      2528      2531      2534      2528      2531      2533      2529      2528      2525
      2529      2528      2531      2529      2528      2530      2530      2528      2525
      2530      2528      2531      2531      2528      2525      2532      2531      2534
      2532      2531      2533      2532      2531      2528      2533      2531      2534
      2535      2539      2542      2535      2539      2541      2535      2539      2540
      2536      2535      2539      2536      2535      2538      2537      2535      2539
      2537      2535      2538      2537      2535      2536      2538      2535      2539
      2540      2539      2542      2540      2539      2541      2541      2539      2542
      2542      2545      2548      2542      2545      2547      2542      2545      2546
      2543      2542      2539      2543      2542      2545      2543      2542      2544
      2544      2542      2539      2544      2542      2545      2545      2542      2539
      2546      2545      2548      2546      2545      2547      2547      2545      2548
      2548      2551      2554      2548      2551      2553      2548      2551      2552
      2549      2548      2545      2549      2548      2551      2549      2548      2550
      2550      2548      2545      2550      2548      2551      2551      2548      2545
      2552      2551      2554      2552      2551      2553      2553      2551      2554
      2554      2557      2560      2554      2557      2559      2554      2557      2558
      2555      2554      2551      2555      2554      2557      2555      2554      2556
      2556      2554      2551      2556      2554      2557      2557      2554      2551
      2558      2557      2560      2558      2557      2559      2559      2557      2560
      2560      2563      2566      2560      2563      2565      2560      2563      2564
      2561      2560      2557      2561      2560      2563      2561      2560      2562
      2562      2560      2557      2562      2560      2563      2563      2560      2557
      2564      2563      2566      2564      2563      2565      2565      2563      2566
      2566      2569      2572      2566      2569      2571      2566      2569      2570
      2567      2566      2563      2567      2566      2569      2567      2566      2568
      2568      2566      2563      2568      2566      2569      2569      2566      2563
      2570      2569      2572      2570      2569      2571      2571      2569      2572
      2572      2575      2578      2572      2575      2577      2572      2575      2576
      2573      2572      2569      2573      2572      2575      2573      2572      2574
      2574      2572      2569      2574      2572      2575      2575      2572      2569
      2576      2575      2578      2576      2575      2577      2577      2575      2578
      2578      2581      2584      2578      2581      2583      2578      2581      2582
      2579      2578      2575      2579      2578      2581      2579      2578      2580
      2580      2578      2575      2580      2578      2581      2581      2578      2575
      2582      2581      2584      2582      2581      2583      2583      2581      2584
      2584      2587      2590      2584      2587      2589      2584      2587      2588
      2585      2584      2581      2585      2584      2587      2585      2584      2586
      2586      2584      2581      2586      2584      2587      2587      2584      2581
      2588      2587      2590      2588      2587      2589      2589      2587      2590
      2590      2593      2596      2590      2593      2595      2590      2593      2594
      2591      2590      2587      2591      2590      2593      2591      2590      2592
      2592      2590      2587      2592      2590      2593      2593      2590      2587
      2594      2593      2596      2594      2593      2595      2595      2593      2596
      2596      2599      2602      2596      2599      2601      2596      2599      2600
      2597      2596      2593      2597      2596      2599      2597      2596      2598
      2598      2596      2593      2598      2596      2599      2599      2596      2593
      2600      2599      2602      2600      2599      2601      2601      2599      2602
      2602      2605      2608      2602      2605      2607      2602      2605      2606
      2603      2602      2599      2603      2602      2605      2603      2602      2604
      2604      2602      2599      2604      2602      2605      2605      2602      2599
      2606      2605      2608      2606      2605      2607      2607      2605      2608
      2608      2611      2614      2608      2611      2613      2608      2611      2612
      2609      2608      2605      2609      2608      2611      2609      2608      2610
      2610      2608      2605      2610      2608      2611      2611      2608      2605
      2612      2611      2614      2612      2611      2613      2613      2611      2614
      2614      2617      2620      2614      2617      2619      2614      2617      2618
      2615      2614      2611      2615      2614      2617      2615      2614      2616
      2616      2614      2611      2616      2614      2617      2617      2614      2611
      2618      2617      2620      2618      2617      2619      2619      2617      2620
      2620      2623      2626      2620      2623      2625      2620      2623      2624
      2621      2620      2617      2621      2620      2623      2621      2620      2622
      2622      2620      2617      2622      2620      2623      2623      2620      2617
      2624      2623      2626      2624      2623      2625      2625      2623      2626
      2626      2629      2632      2626      2629      2631      2626      2629      2630
      2627      2626      2623      2627      2626      2629      2627      2626      2628
      2628      2626      2623      2628      2626      2629      2629      2626      2623
      2630      2629      2632      2630      2629      2631      2631      2629      2632
      2632      2635      2638      2632      2635      2637      2632      2635      2636
      2633      2632      2629      2633      2632      2635      2633      2632      2634
      2634      2632      2629      2634      2632      2635      2635      2632      2629
      2636      2635      2638      2636      2635      2637      2637      2635      2638
      2638      2641      2644      2638      2641      2643      2638      2641      2642
      2639      2638      2635      2639      2638      2641      2639      2638      2640
      2640      2638      2635      2640      2638      2641      2641      2638      2635
      2642      2641      2644      2642      2641      2643      2643      2641      2644
      2644      2647      2650      2644      2647      2649      2644      2647      2648
      2645      2644      2641      2645      2644      2647      2645      2644      2646
      2646      2644      2641      2646      2644      2647      2647      2644      2641
      2648      2647      2650      2648      2647      2649      2649      2647      2650
      2650      2653      2656      2650      2653      2655      2650      2653      2654
      2651      2650      2647      2651      2650      2653      2651      2650      2652
      2652      2650      2647      2652      2650      2653      2653      2650      2647
      2654      2653      2656      2654      2653      2655      2655      2653      2656
      2656      2659      2662      2656      2659      2661      2656      2659      2660
      2657      2656      2653      2657      2656      2659      2657      2656      2658
      2658      2656      2653      2658      2656      2659      2659      2656      2653
      2660      2659      2662      2660      2659      2661      2661      2659      2662
      2662      2665      2668      2662      2665      2667      2662      2665      2666
      2663      2662      2659      2663      2662      2665      2663      2662      2664
      2664      2662      2659      2664      2662      2665      2665      2662      2659
      2666      2665      2668      2666      2665      2667      2667      2665      2668
      2668      2671      2674      2668      2671      2673      2668      2671      2672
      2669      2668      2665      2669      2668      2671      2669      2668      2670
      2670      2668      2665      2670      2668      2671      2671      2668      2665
      2672      2671      2674      2672      2671      2673      2673      2671      2674
      2674      2677      2680      2674      2677      2679      2674      2677      2678
      2675      2674      2671      2675      2674      2677      2675      2674      2676
      2676      2674      2671      2676      2674      2677      2677      2674      2671
      2678      2677      2680      2678      2677      2679      2679      2677      2680
      2680      2683      2686      2680      2683      2685      2680      2683      2684
      2681      2680      2677      2681      2680      2683      2681      2680      2682
      2682      2680      2677      2682      2680      2683      2683      2680      2677
      2684      2683      2686      2684      2683      2685      2685      2683      2686
      2686      2689      2692      2686      2689      2691      2686      2689      2690
      2687      2686      2683      2687      2686      2689      2687      2686      2688
      2688      2686      2683      2688      2686      2689      2689      2686      2683
      2690      2689      2692      2690      2689      2691      2691      2689      2692
      2692      2695      2698      2692      2695      2697      2692      2695      2696
      2693      2692      2689      2693      2692      2695      2693      2692      2694
      2694      2692      2689      2694      2692      2695      2695      2692      2689
      2696      2695      2698      2696      2695      2697      2697      2695      2698
      2698      2701      2704      2698      2701      2703      2698      2701      2702
      2699      2698      2695      2699      2698      2701      2699      2698      2700
      2700      2698      2695      2700      2698      2701      2701      2698      2695
      2702      2701      2704      2702      2701      2703      2703      2701      2704
      2704      2707      2710      2704      2707      2709      2704      2707      2708
      2705      2704      2701      2705      2704      2707      2705      2704      2706
      2706      2704      2701      2706      2704      2707      2707      2704      2701
      2708      2707      2710      2708      2707      2709      2709      2707      2710
      2710      2713      2716      2710      2713      2715      2710      2713      2714
      2711      2710      2707      2711      2710      2713      2711      2710      2712
      2712      2710      2707      2712      2710      2713      2713      2710      2707
      2714      2713      2716      2714      2713      2715      2715      2713      2716
      2716      2719      2722      2716      2719      2721      2716      2719      2720
      2717      2716      2713      2717      2716      2719      2717      2716      2718
      2718      2716      2713      2718      2716      2719      2719      2716      2713
      2720      2719      2722      2720      2719      2721      2721      2719      2722
      2722      2725      2728      2722      2725      2727      2722      2725      2726
      2723      2722      2719      2723      2722      2725      2723      2722      2724
      2724      2722      2719      2724      2722      2725      2725      2722      2719
      2726      2725      2728      2726      2725      2727      2727      2725      2728
      2728      2731      2734      2728      2731      2733      2728      2731      2732
      2729      2728      2725      2729      2728      2731      2729      2728      2730
      2730      2728      2725      2730      2728      2731      2731      2728      2725
      2732      2731      2734      2732      2731      2733      2733      2731      2734
      2734      2737      2740      2734      2737      2739      2734      2737      2738
      2735      2734      2731      2735      2734      2737      2735      2734      2736
      2736      2734      2731      2736      2734      2737      2737      2734      2731
      2738      2737      2740      2738      2737      2739      2739      2737      2740
      2740      2743      2746      2740      2743      2745      2740      2743      2744
      2741      2740      2737      2741      2740      2743      2741      2740      2742
      2742      2740      2737      2742      2740      2743      2743      2740      2737
      2744      2743      2746      2744      2743      2745      2745      2743      2746
      2746      2749      2752      2746      2749      2751      2746      2749      2750
      2747      2746      2743      2747      2746      2749      2747      2746      2748
      2748      2746      2743      2748      2746      2749      2749      2746      2743
      2750      2749      2752      2750      2749      2751      2751      2749      2752
      2752      2755      2758      2752      2755      2757      2752      2755      2756
      2753      2752      2749      2753      2752      2755      2753      2752      2754
      2754      2752      2749      2754      2752      2755      2755      2752      2749
      2756      2755      2758      2756      2755      2757      2757      2755      2758
      2758      2761      2764      2758      2761      2763      2758      2761      2762
      2759      2758      2755      2759      2758      2761      2759      2758      2760
      2760      2758      2755      2760      2758      2761      2761      2758      2755
      2762      2761      2764      2762      2761      2763      2763      2761      2764
      2764      2767      2770      2764      2767      2769      2764      2767      2768
      2765      2764      2761      2765      2764      2767      2765      2764      2766
      2766      2764      2761      2766      2764      2767      2767      2764      2761
      2768      2767      2770      2768      2767      2769      2769      2767      2770
      2770      2773      2776      2770      2773      2775      2770      2773      2774
      2771      2770      2767      2771      2770      2773      2771      2770      2772
      2772      2770      2767      2772      2770      2773      2773      2770      2767
      2774      2773      2776      2774      2773      2775      2775      2773      2776
      2776      2779      2782      2776      2779      2781      2776      2779      2780
      2777      2776      2773      2777      2776      2779      2777      2776      2778
      2778      2776      2773      2778      2776      2779      2779      2776      2773
      2780      2779      2782      2780      2779      2781      2781      2779      2782
      2782      2785      2788      2782      2785      2787      2782      2785      2786
      2783      2782      2779      2783      2782      2785      2783      2782      2784
      2784      2782      2779      2784      2782      2785      2785      2782      2779
      2786      2785      2788      2786      2785      2787      2787      2785      2788
      2788      2791      2794      2788      2791      2793      2788      2791      2792
      2789      2788      2785      2789      2788      2791      2789      2788      2790
      2790      2788      2785      2790      2788      2791      2791      2788      2785
      2792      2791      2794      2792      2791      2793      2793      2791      2794
      2794      2797      2800      2794      2797      2799      2794      2797      2798
      2795      2794      2791      2795      2794      2797      2795      2794      2796
      2796      2794      2791      2796      2794      2797      2797      2794      2791
      2798      2797      2800      2798      2797      2799      2799      2797      2800
      2800      2803      2806      2800      2803      2805      2800      2803      2804
      2801      2800      2797      2801      2800      2803      2801      2800      2802
      2802      2800      2797      2802      2800      2803      2803      2800      2797
      2804      2803      2806      2804      2803      2805      2805      2803      2806
      2806      2809      2812      2806      2809      2811      2806      2809      2810
      2807      2806      2803      2807      2806      2809      2807      2806      2808
      2808      2806      2803      2808      2806      2809      2809      2806      2803
      2810      2809      2812      2810      2809      2811      2811      2809      2812
      2812      2815      2818      2812      2815      2817      2812      2815      2816
      2813      2812      2809      2813      2812      2815      2813      2812      2814
      2814      2812      2809      2814      2812      2815      2815      2812      2809
      2816      2815      2818      2816      2815      2817      2817      2815      2818
      2818      2821      2824      2818      2821      2823      2818      2821      2822
      2819      2818      2815      2819      2818      2821      2819      2818      2820
      2820      2818      2815      2820      2818      2821      2821      2818      2815
      2822      2821      2824      2822      2821      2823      2823      2821      2824
      2824      2827      2830      2824      2827      2829      2824      2827      2828
      2825      2824      2821      2825      2824      2827      2825      2824      2826
      2826      2824      2821      2826      2824      2827      2827      2824      2821
      2828      2827      2830      2828      2827      2829      2829      2827      2830
      2830      2833      2836      2830      2833      2835      2830      2833      2834
      2831      2830      2827      2831      2830      2833      2831      2830      2832
      2832      2830      2827      2832      2830      2833      2833      2830      2827
      2834      2833      2836      2834      2833      2835      2835      2833      2836
      2836      2839      2842      2836      2839      2841      2836      2839      2840
      2837      2836      2833      2837      2836      2839      2837      2836      2838
      2838      2836      2833      2838      2836      2839      2839      2836      2833
      2840      2839      2842      2840      2839      2841      2841      2839      2842
      2842      2845      2848      2842      2845      2847      2842      2845      2846
      2843      2842      2839      2843      2842      2845      2843      2842      2844
      2844      2842      2839      2844      2842      2845      2845      2842      2839
      2846      2845      2848      2846      2845      2847      2847      2845      2848
      2848      2851      2854      2848      2851      2853      2848      2851      2852
      2849      2848      2845      2849      2848      2851      2849      2848      2850
      2850      2848      2845      2850      2848      2851      2851      2848      2845
      2852      2851      2854      2852      2851      2853      2853      2851      2854
      2854      2857      2860      2854      2857      2859      2854      2857      2858
      2855      2854      2851      2855      2854      2857      2855      2854      2856
      2856      2854      2851      2856      2854      2857      2857      2854      2851
      2858      2857      2860      2858      2857      2859      2859      2857      2860
      2860      2863      2866      2860      2863      2865      2860      2863      2864
      2861      2860      2857      2861      2860      2863      2861      2860      2862
      2862      2860      2857      2862      2860      2863      2863      2860      2857
      2864      2863      2866      2864      2863      2865      2865      2863      2866
      2866      2869      2872      2866      2869      2871      2866      2869      2870
      2867      2866      2863      2867      2866      2869      2867      2866      2868
      2868      2866      2863      2868      2866      2869      2869      2866      2863
      2870      2869      2872      2870      2869      2871      2871      2869      2872
      2872      2875      2878      2872      2875      2877      2872      2875      2876
      2873      2872      2869      2873      2872      2875      2873      2872      2874
      2874      2872      2869      2874      2872      2875      2875      2872      2869
      2876      2875      2878      2876      2875      2877      2877      2875      2878
      2878      2881      2884      2878      2881      2883      2878      2881      2882
      2879      2878      2875      2879      2878      2881      2879      2878      2880
      2880      2878      2875      2880      2878      2881      2881      2878      2875
      2882      2881      2884      2882      2881      2883      2883      2881      2884
      2884      2887      2890      2884      2887      2889      2884      2887      2888
      2885      2884      2881      2885      2884      2887      2885      2884      2886
      2886      2884      2881      2886      2884      2887      2887      2884      2881
      2888      2887      2890      2888      2887      2889      2889      2887      2890
      2890      2893      2896      2890      2893      2895      2891      2890      2887
      2891      2890      2893      2891      2890      2892      2892      2890      2887
      2892      2890      2893      2893      2890      2887      2894      2893      2896
      2894      2893      2895      2894      2893      2890      2895      2893      2896
      2897      2901      2904      2897      2901      2903      2897      2901      2902
      2898      2897      2901      2898      2897      2900      2899      2897      2901
      2899      2897      2900      2899      2897      2898      2900      2897      2901
      2902      2901      2904      2902      2901      2903      2903      2901      2904
      2904      2907      2910      2904      2907      2909      2904      2907      2908
      2905      2904      2901      2905      2904      2907      2905      2904      2906
      2906      2904      2901      2906      2904      2907      2907      2904      2901
      2908      2907      2910      2908      2907      2909      2909      2907      2910
      2910      2913      2916      2910      2913      2915      2910      2913      2914
      2911      2910      2907      2911      2910      2913      2911      2910      2912
      2912      2910      2907      2912      2910      2913      2913      2910      2907
      2914      2913      2916      2914      2913      2915      2915      2913      2916
      2916      2919      2922      2916      2919      2921      2916      2919      2920
      2917      2916      2913      2917      2916      2919      2917      2916      2918
      2918      2916      2913      2918      2916      2919      2919      2916      2913
      2920      2919      2922      2920      2919      2921      2921      2919      2922
      2922      2925      2928      2922      2925      2927      2922      2925      2926
      2923      2922      2919      2923      2922      2925      2923      2922      2924
      2924      2922      2919      2924      2922      2925      2925      2922      2919
      2926      2925      2928      2926      2925      2927      2927      2925      2928
      2928      2931      2934      2928      2931      2933      2928      2931      2932
      2929      2928      2925      2929      2928      2931      2929      2928      2930
      2930      2928      2925      2930      2928      2931      2931      2928      2925
      2932      2931      2934      2932      2931      2933      2933      2931      2934
      2934      2937      2940      2934      2937      2939      2934      2937      2938
      2935      2934      2931      2935      2934      2937      2935      2934      2936
      2936      2934      2931      2936      2934      2937      2937      2934      2931
      2938      2937      2940      2938      2937      2939      2939      2937      2940
      2940      2943      2946      2940      2943      2945      2940      2943      2944
      2941      2940      2937      2941      2940      2943      2941      2940      2942
      2942      2940      2937      2942      2940      2943      2943      2940      2937
      2944      2943      2946      2944      2943      2945      2945      2943      2946
      2946      2949      2952      2946      2949      2951      2946      2949      2950
      2947      2946      2943      2947      2946      2949      2947      2946      2948
      2948      2946      2943      2948      2946      2949      2949      2946      2943
      2950      2949      2952      2950      2949      2951      2951      2949      2952
      2952      2955      2958      2952      2955      2957      2952      2955      2956
      2953      2952      2949      2953      2952      2955      2953      2952      2954
      2954      2952      2949      2954      2952      2955      2955      2952      2949
      2956      2955      2958      2956      2955      2957      2957      2955      2958
      2958      2961      2964      2958      2961      2963      2958      2961      2962
      2959      2958      2955      2959      2958      2961      2959      2958      2960
      2960      2958      2955      2960      2958      2961      2961      2958      2955
      2962      2961      2964      2962      2961      2963      2963      2961      2964
      2964      2967      2970      2964      2967      2969      2964      2967      2968
      2965      2964      2961      2965      2964      2967      2965      2964      2966
      2966      2964      2961      2966      2964      2967      2967      2964      2961
      2968      2967      2970      2968      2967      2969      2969      2967      2970
      2970      2973      2976      2970      2973      2975      2970      2973      2974
      2971      2970      2967      2971      2970      2973      2971      2970      2972
      2972      2970      2967      2972      2970      2973      2973      2970      2967
      2974      2973      2976      2974      2973      2975      2975      2973      2976
      2976      2979      2982      2976      2979      2981      2976      2979      2980
      2977      2976      2973      2977      2976      2979      2977      2976      2978
      2978      2976      2973      2978      2976      2979      2979      2976      2973
      2980      2979      2982      2980      2979      2981      2981      2979      2982
      2982      2985      2988      2982      2985      2987      2982      2985      2986
      2983      2982      2979      2983      2982      2985      2983      2982      2984
      2984      2982      2979      2984      2982      2985      2985      2982      2979
      2986      2985      2988      2986      2985      2987      2987      2985      2988
      2988      2991      2994      2988      2991      2993      2988      2991      2992
      2989      2988      2985      2989      2988      2991      2989      2988      2990
      2990      2988      2985      2990      2988      2991      2991      2988      2985
      2992      2991      2994      2992      2991      2993      2993      2991      2994
      2994      2997      3000      2994      2997      2999      2994      2997      2998
      2995      2994      2991      2995      2994      2997      2995      2994      2996
      2996      2994      2991      2996      2994      2997      2997      2994      2991
      2998      2997      3000      2998      2997      2999      2999      2997      3000
      3000      3003      3006      3000      3003      3005      3000      3003      3004
      3001      3000      2997      3001      3000      3003      3001      3000      3002
      3002      3000      2997      3002      3000      3003      3003      3000      2997
      3004      3003      3006      3004      3003      3005      3005      3003      3006
      3006      3009      3012      3006      3009      3011      3006      3009      3010
      3007      3006      3003      3007      3006      3009      3007      3006      3008
      3008      3006      3003      3008      3006      3009      3009      3006      3003
      3010      3009      3012      3010      3009      3011      3011      3009      3012
      3012      3015      3018      3012      3015      3017      3012      3015      3016
      3013      3012      3009      3013      3012      3015      3013      3012      3014
      3014      3012      3009      3014      3012      3015      3015      3012      3009
      3016      3015      3018      3016      3015      3017      3017      3015      3018
      3018      3021      3024      3018      3021      3023      3018      3021      3022
      3019      3018      3015      3019      3018      3021      3019      3018      3020
      3020      3018      3015      3020      3018      3021      3021      3018      3015
      3022      3021      3024      3022      3021      3023      3023      3021      3024
      3024      3027      3030      3024      3027      3029      3024      3027      3028
      3025      3024      3021      3025      3024      3027      3025      3024      3026
      3026      3024      3021      3026      3024      3027      3027      3024      3021
      3028      3027      3030      3028      3027      3029      3029      3027      3030
      3030      3033      3036      3030      3033      3035      3030      3033      3034
      3031      3030      3027      3031      3030      3033      3031      3030      3032
      3032      3030      3027      3032      3030      3033      3033      3030      3027
      3034      3033      3036      3034      3033      3035      3035      3033      3036
      3036      3039      3042      3036      3039      3041      3036      3039      3040
      3037      3036      3033      3037      3036      3039      3037      3036      3038
      3038      3036      3033      3038      3036      3039      3039      3036      3033
      3040      3039      3042      3040      3039      3041      3041      3039      3042
      3042      3045      3048      3042      3045      3047      3042      3045      3046
      3043      3042      3039      3043      3042      3045      3043      3042      3044
      3044      3042      3039      3044      3042      3045      3045      3042      3039
      3046      3045      3048      3046      3045      3047      3047      3045      3048
      3048      3051      3054      3048      3051      3053      3048      3051      3052
      3049      3048      3045      3049      3048      3051      3049      3048      3050
      3050      3048      3045      3050      3048      3051      3051      3048      3045
      3052      3051      3054      3052      3051      3053      3053      3051      3054
      3054      3057      3060      3054      3057      3059      3054      3057      3058
      3055      3054      3051      3055      3054      3057      3055      3054      3056
      3056      3054      3051      3056      3054      3057      3057      3054      3051
      3058      3057      3060      3058      3057      3059      3059      3057      3060
      3060      3063      3066      3060      3063      3065      3060      3063      3064
      3061      3060      3057      3061      3060      3063      3061      3060      3062
      3062      3060      3057      3062      3060      3063      3063      3060      3057
      3064      3063      3066      3064      3063      3065      3065      3063      3066
      3066      3069      3072      3066      3069      3071      3066      3069      3070
      3067      3066      3063      3067      3066      3069      3067      3066      3068
      3068      3066      3063      3068      3066      3069      3069      3066      3063
      3070      3069      3072      3070      3069      3071      3071      3069      3072
      3072      3075      3078      3072      3075      3077      3072      3075      3076
      3073      3072      3069      3073      3072      3075      3073      3072      3074
      3074      3072      3069      3074      3072      3075      3075      3072      3069
      3076      3075      3078      3076      3075      3077      3077      3075      3078
      3078      3081      3084      3078      3081      3083      3078      3081      3082
      3079      3078      3075      3079      3078      3081      3079      3078      3080
      3080      3078      3075      3080      3078      3081      3081      3078      3075
      3082      3081      3084      3082      3081      3083      3083      3081      3084
      3084      3087      3090      3084      3087      3089      3084      3087      3088
      3085      3084      3081      3085      3084      3087      3085      3084      3086
      3086      3084      3081      3086      3084      3087      3087      3084      3081
      3088      3087      3090      3088      3087      3089      3089      3087      3090
      3090      3093      3096      3090      3093      3095      3090      3093      3094
      3091      3090      3087      3091      3090      3093      3091      3090      3092
      3092      3090      3087      3092      3090      3093      3093      3090      3087
      3094      3093      3096      3094      3093      3095      3095      3093      3096
      3096      3099      3102      3096      3099      3101      3096      3099      3100
      3097      3096      3093      3097      3096      3099      3097      3096      3098
      3098      3096      3093      3098      3096      3099      3099      3096      3093
      3100      3099      3102      3100      3099      3101      3101      3099      3102
      3102      3105      3108      3102      3105      3107      3102      3105      3106
      3103      3102      3099      3103      3102      3105      3103      3102      3104
      3104      3102      3099      3104      3102      3105      3105      3102      3099
      3106      3105      3108      3106      3105      3107      3107      3105      3108
      3108      3111      3114      3108      3111      3113      3108      3111      3112
      3109      3108      3105      3109      3108      3111      3109      3108      3110
      3110      3108      3105      3110      3108      3111      3111      3108      3105
      3112      3111      3114      3112      3111      3113      3113      3111      3114
      3114      3117      3120      3114      3117      3119      3114      3117      3118
      3115      3114      3111      3115      3114      3117      3115      3114      3116
      3116      3114      3111      3116      3114      3117      3117      3114      3111
      3118      3117      3120      3118      3117      3119      3119      3117      3120
      3120      3123      3126      3120      3123      3125      3120      3123      3124
      3121      3120      3117      3121      3120      3123      3121      3120      3122
      3122      3120      3117      3122      3120      3123      3123      3120      3117
      3124      3123      3126      3124      3123      3125      3125      3123      3126
      3126      3129      3132      3126      3129      3131      3126      3129      3130
      3127      3126      3123      3127      3126      3129      3127      3126      3128
      3128      3126      3123      3128      3126      3129      3129      3126      3123
      3130      3129      3132      3130      3129      3131      3131      3129      3132
      3132      3135      3138      3132      3135      3137      3132      3135      3136
      3133      3132      3129      3133      3132      3135      3133      3132      3134
      3134      3132      3129      3134      3132      3135      3135      3132      3129
      3136      3135      3138      3136      3135      3137      3137      3135      3138
      3138      3141      3144      3138      3141      3143      3138      3141      3142
      3139      3138      3135      3139      3138      3141      3139      3138      3140
      3140      3138      3135      3140      3138      3141      3141      3138      3135
      3142      3141      3144      3142      3141      3143      3143      3141      3144
      3144      3147      3150      3144      3147      3149      3144      3147      3148
      3145      3144      3141      3145      3144      3147      3145      3144      3146
      3146      3144      3141      3146      3144      3147      3147      3144      3141
      3148      3147      3150      3148      3147      3149      3149      3147      3150
      3150      3153      3156      3150      3153      3155      3150      3153      3154
      3151      3150      3147      3151      3150      3153      3151      3150      3152
      3152      3150      3147      3152      3150      3153      3153      3150      3147
      3154      3153      3156      3154      3153      3155      3155      3153      3156
      3156      3159      3162      3156      3159      3161      3156      3159      3160
      3157      3156      3153      3157      3156      3159      3157      3156      3158
      3158      3156      3153      3158      3156      3159      3159      3156      3153
      3160      3159      3162      3160      3159      3161      3161      3159      3162
      3162      3165      3168      3162      3165      3167      3162      3165      3166
      3163      3162      3159      3163      3162      3165      3163      3162      3164
      3164      3162      3159      3164      3162      3165      3165      3162      3159
      3166      3165      3168      3166      3165      3167      3167      3165      3168
      3168      3171      3174      3168      3171      3173      3168      3171      3172
      3169      3168      3165      3169      3168      3171      3169      3168      3170
      3170      3168      3165      3170      3168      3171      3171      3168      3165
      3172      3171      3174      3172      3171      3173      3173      3171      3174
      3174      3177      3180      3174      3177      3179      3174      3177      3178
      3175      3174      3171      3175      3174      3177      3175      3174      3176
      3176      3174      3171      3176      3174      3177      3177      3174      3171
      3178      3177      3180      3178      3177      3179      3179      3177      3180
      3180      3183      3186      3180      3183      3185      3180      3183      3184
      3181      3180      3177      3181      3180      3183      3181      3180      3182
      3182      3180      3177      3182      3180      3183      3183      3180      3177
      3184      3183      3186      3184      3183      3185      3185      3183      3186
      3186      3189      3192      3186      3189      3191      3186      3189      3190
      3187      3186      3183      3187      3186      3189      3187      3186      3188
      3188      3186      3183      3188      3186      3189      3189      3186      3183
      3190      3189      3192      3190      3189      3191      3191      3189      3192
      3192      3195      3198      3192      3195      3197      3192      3195      3196
      3193      3192      3189      3193      3192      3195      3193      3192      3194
      3194      3192      3189      3194      3192      3195      3195      3192      3189
      3196      3195      3198      3196      3195      3197      3197      3195      3198
      3198      3201      3204      3198      3201      3203      3198      3201      3202
      3199      3198      3195      3199      3198      3201      3199      3198      3200
      3200      3198      3195      3200      3198      3201      3201      3198      3195
      3202      3201      3204      3202      3201      3203      3203      3201      3204
      3204      3207      3210      3204      3207      3209      3204      3207      3208
      3205      3204      3201      3205      3204      3207      3205      3204      3206
      3206      3204      3201      3206      3204      3207      3207      3204      3201
      3208      3207      3210      3208      3207      3209      3209      3207      3210
      3210      3213      3216      3210      3213      3215      3210      3213      3214
      3211      3210      3207      3211      3210      3213      3211      3210      3212
      3212      3210      3207      3212      3210      3213      3213      3210      3207
      3214      3213      3216      3214      3213      3215      3215      3213      3216
      3216      3219      3222      3216      3219      3221      3216      3219      3220
      3217      3216      3213      3217      3216      3219      3217      3216      3218
      3218      3216      3213      3218      3216      3219      3219      3216      3213
      3220      3219      3222      3220      3219      3221      3221      3219      3222
      3222      3225      3228      3222      3225      3227      3222      3225      3226
      3223      3222      3219      3223      3222      3225      3223      3222      3224
      3224      3222      3219      3224      3222      3225      3225      3222      3219
      3226      3225      3228      3226      3225      3227      3227      3225      3228
      3228      3231      3234      3228      3231      3233      3228      3231      3232
      3229      3228      3225      3229      3228      3231      3229      3228      3230
      3230      3228      3225      3230      3228      3231      3231      3228      3225
      3232      3231      3234      3232      3231      3233      3233      3231      3234
      3234      3237      3240      3234      3237      3239      3234      3237      3238
      3235      3234      3231      3235      3234      3237      3235      3234      3236
      3236      3234      3231      3236      3234      3237      3237      3234      3231
      3238      3237      3240      3238      3237      3239      3239      3237      3240
      3240      3243      3246      3240      3243      3245      3240      3243      3244
      3241      3240      3237      3241      3240      3243      3241      3240      3242
      3242      3240      3237      3242      3240      3243      3243      3240      3237
      3244      3243      3246      3244      3243      3245      3245      3243      3246
      3246      3249      3252      3246      3249      3251      3246      3249      3250
      3247      3246      3243      3247      3246      3249      3247      3246      3248
      3248      3246      3243      3248      3246      3249      3249      3246      3243
      3250      3249      3252      3250      3249      3251      3251      3249      3252
      3252      3255      3258      3252      3255      3257      3253      3252      3249
      3253      3252      3255      3253      3252      3254      3254      3252      3249
      3254      3252      3255      3255      3252      3249      3256      3255      3258
      3256      3255      3257      3256      3255      3252      3257      3255      3258
      3259      3263      3266      3259      3263      3265      3259      3263      3264
      3260      3259      3263      3260      3259      3262      3261      3259      3263
      3261      3259      3262      3261      3259      3260      3262      3259      3263
      3264      3263      3266      3264      3263      3265      3265      3263      3266
      3266      3269      3272      3266      3269      3271      3266      3269      3270
      3267      3266      3263      3267      3266      3269      3267      3266      3268
      3268      3266      3263      3268      3266      3269      3269      3266      3263
      3270      3269      3272      3270      3269      3271      3271      3269      3272
      3272      3275      3278      3272      3275      3277      3272      3275      3276
      3273      3272      3269      3273      3272      3275      3273      3272      3274
      3274      3272      3269      3274      3272      3275      3275      3272      3269
      3276      3275      3278      3276      3275      3277      3277      3275      3278
      3278      3281      3284      3278      3281      3283      3278      3281      3282
      3279      3278      3275      3279      3278      3281      3279      3278      3280
      3280      3278      3275      3280      3278      3281      3281      3278      3275
      3282      3281      3284      3282      3281      3283      3283      3281      3284
      3284      3287      3290      3284      3287      3289      3284      3287      3288
      3285      3284      3281      3285      3284      3287      3285      3284      3286
      3286      3284      3281      3286      3284      3287      3287      3284      3281
      3288      3287      3290      3288      3287      3289      3289      3287      3290
      3290      3293      3296      3290      3293      3295      3290      3293      3294
      3291      3290      3287      3291      3290      3293      3291      3290      3292
      3292      3290      3287      3292      3290      3293      3293      3290      3287
      3294      3293      3296      3294      3293      3295      3295      3293      3296
      3296      3299      3302      3296      3299      3301      3296      3299      3300
      3297      3296      3293      3297      3296      3299      3297      3296      3298
      3298      3296      3293      3298      3296      3299      3299      3296      3293
      3300      3299      3302      3300      3299      3301      3301      3299      3302
      3302      3305      3308      3302      3305      3307      3302      3305      3306
      3303      3302      3299      3303      3302      3305      3303      3302      3304
      3304      3302      3299      3304      3302      3305      3305      3302      3299
      3306      3305      3308      3306      3305      3307      3307      3305      3308
      3308      3311      3314      3308      3311      3313      3308      3311      3312
      3309      3308      3305      3309      3308      3311      3309      3308      3310
      3310      3308      3305      3310      3308      3311      3311      3308      3305
      3312      3311      3314      3312      3311      3313      3313      3311      3314
      3314      3317      3320      3314      3317      3319      3314      3317      3318
      3315      3314      3311      3315      3314      3317      3315      3314      3316
      3316      3314      3311      3316      3314      3317      3317      3314      3311
      3318      3317      3320      3318      3317      3319      3319      3317      3320
      3320      3323      3326      3320      3323      3325      3320      3323      3324
      3321      3320      3317      3321      3320      3323      3321      3320      3322
      3322      3320      3317      3322      3320      3323      3323      3320      3317
      3324      3323      3326      3324      3323      3325      3325      3323      3326
      3326      3329      3332      3326      3329      3331      3326      3329      3330
      3327      3326      3323      3327      3326      3329      3327      3326      3328
      3328      3326      3323      3328      3326      3329      3329      3326      3323
      3330      3329      3332      3330      3329      3331      3331      3329      3332
      3332      3335      3338      3332      3335      3337      3332      3335      3336
      3333      3332      3329      3333      3332      3335      3333      3332      3334
      3334      3332      3329      3334      3332      3335      3335      3332      3329
      3336      3335      3338      3336      3335      3337      3337      3335      3338
      3338      3341      3344      3338      3341      3343      3338      3341      3342
      3339      3338      3335      3339      3338      3341      3339      3338      3340
      3340      3338      3335      3340      3338      3341      3341      3338      3335
      3342      3341      3344      3342      3341      3343      3343      3341      3344
      3344      3347      3350      3344      3347      3349      3344      3347      3348
      3345      3344      3341      3345      3344      3347      3345      3344      3346
      3346      3344      3341      3346      3344      3347      3347      3344      3341
      3348      3347      3350      3348      3347      3349      3349      3347      3350
      3350      3353      3356      3350      3353      3355      3350      3353      3354
      3351      3350      3347      3351      3350      3353      3351      3350      3352
      3352      3350      3347      3352      3350      3353      3353      3350      3347
      3354      3353      3356      3354      3353      3355      3355      3353      3356
      3356      3359      3362      3356      3359      3361      3356      3359      3360
      3357      3356      3353      3357      3356      3359      3357      3356      3358
      3358      3356      3353      3358      3356      3359      3359      3356      3353
      3360      3359      3362      3360      3359      3361      3361      3359      3362
      3362      3365      3368      3362      3365      3367      3362      3365      3366
      3363      3362      3359      3363      3362      3365      3363      3362      3364
      3364      3362      3359      3364      3362      3365      3365      3362      3359
      3366      3365      3368      3366      3365      3367      3367      3365      3368
      3368      3371      3374      3368      3371      3373      3368      3371      3372
      3369      3368      3365      3369      3368      3371      3369      3368      3370
      3370      3368      3365      3370      3368      3371      3371      3368      3365
      3372      3371      3374      3372      3371      3373      3373      3371      3374
      3374      3377      3380      3374      3377      3379      3374      3377      3378
      3375      3374      3371      3375      3374      3377      3375      3374      3376
      3376      3374      3371      3376      3374      3377      3377      3374      3371
      3378      3377      3380      3378      3377      3379      3379      3377      3380
      3380      3383      3386      3380      3383      3385      3380      3383      3384
      3381      3380      3377      3381      3380      3383      3381      3380      3382
      3382      3380      3377      3382      3380      3383      3383      3380      3377
      3384      3383      3386      3384      3383      3385      3385      3383      3386
      3386      3389      3392      3386      3389      3391      3386      3389      3390
      3387      3386      3383      3387      3386      3389      3387      3386      3388
      3388      3386      3383      3388      3386      3389      3389      3386      3383
      3390      3389      3392      3390      3389      3391      3391      3389      3392
      3392      3395      3398      3392      3395      3397      3392      3395      3396
      3393      3392      3389      3393      3392      3395      3393      3392      3394
      3394      3392      3389      3394      3392      3395      3395      3392      3389
      3396      3395      3398      3396      3395      3397      3397      3395      3398
      3398      3401      3404      3398      3401      3403      3398      3401      3402
      3399      3398      3395      3399      3398      3401      3399      3398      3400
      3400      3398      3395      3400      3398      3401      3401      3398      3395
      3402      3401      3404      3402      3401      3403      3403      3401      3404
      3404      3407      3410      3404      3407      3409      3404      3407      3408
      3405      3404      3401      3405      3404      3407      3405      3404      3406
      3406      3404      3401      3406      3404      3407      3407      3404      3401
      3408      3407      3410      3408      3407      3409      3409      3407      3410
      3410      3413      3416      3410      3413      3415      3410      3413      3414
      3411      3410      3407      3411      3410      3413      3411      3410      3412
      3412      3410      3407      3412      3410      3413      3413      3410      3407
      3414      3413      3416      3414      3413      3415      3415      3413      3416
      3416      3419      3422      3416      3419      3421      3416      3419      3420
      3417      3416      3413      3417      3416      3419      3417      3416      3418
      3418      3416      3413      3418      3416      3419      3419      3416      3413
      3420      3419      3422      3420      3419      3421      3421      3419      3422
      3422      3425      3428      3422      3425      3427      3422      3425      3426
      3423      3422      3419      3423      3422      3425      3423      3422      3424
      3424      3422      3419      3424      3422      3425      3425      3422      3419
      3426      3425      3428      3426      3425      3427      3427      3425      3428
      3428      3431      3434      3428      3431      3433      3428      3431      3432
      3429      3428      3425      3429      3428      3431      3429      3428      3430
      3430      3428      3425      3430      3428      3431      3431      3428      3425
      3432      3431      3434      3432      3431      3433      3433      3431      3434
      3434      3437      3440      3434      3437      3439      3434      3437      3438
      3435      3434      3431      3435      3434      3437      3435      3434      3436
      3436      3434      3431      3436      3434      3437      3437      3434      3431
      3438      3437      3440      3438      3437      3439      3439      3437      3440
      3440      3443      3446      3440      3443      3445      3440      3443      3444
      3441      3440      3437      3441      3440      3443      3441      3440      3442
      3442      3440      3437      3442      3440      3443      3443      3440      3437
      3444      3443      3446      3444      3443      3445      3445      3443      3446
      3446      3449      3452      3446      3449      3451      3446      3449      3450
      3447      3446      3443      3447      3446      3449      3447      3446      3448
      3448      3446      3443      3448      3446      3449      3449      3446      3443
      3450      3449      3452      3450      3449      3451      3451      3449      3452
      3452      3455      3458      3452      3455      3457      3452      3455      3456
      3453      3452      3449      3453      3452      3455      3453      3452      3454
      3454      3452      3449      3454      3452      3455      3455      3452      3449
      3456      3455      3458      3456      3455      3457      3457      3455      3458
      3458      3461      3464      3458      3461      3463      3458      3461      3462
      3459      3458      3455      3459      3458      3461      3459      3458      3460
      3460      3458      3455      3460      3458      3461      3461      3458      3455
      3462      3461      3464      3462      3461      3463      3463      3461      3464
      3464      3467      3470      3464      3467      3469      3464      3467      3468
      3465      3464      3461      3465      3464      3467      3465      3464      3466
      3466      3464      3461      3466      3464      3467      3467      3464      3461
      3468      3467      3470      3468      3467      3469      3469      3467      3470
      3470      3473      3476      3470      3473      3475      3470      3473      3474
      3471      3470      3467      3471      3470      3473      3471      3470      3472
      3472      3470      3467      3472      3470      3473      3473      3470      3467
      3474      3473      3476      3474      3473      3475      3475      3473      3476
      3476      3479      3482      3476      3479      3481      3476      3479      3480
      3477      3476      3473      3477      3476      3479      3477      3476      3478
      3478      3476      3473      3478      3476      3479      3479      3476      3473
      3480      3479      3482      3480      3479      3481      3481      3479      3482
      3482      3485      3488      3482      3485      3487      3482      3485      3486
      3483      3482      3479      3483      3482      3485      3483      3482      3484
      3484      3482      3479      3484      3482      3485      3485      3482      3479
      3486      3485      3488      3486      3485      3487      3487      3485      3488
      3488      3491      3494      3488      3491      3493      3488      3491      3492
      3489      3488      3485      3489      3488      3491      3489      3488      3490
      3490      3488      3485      3490      3488      3491      3491      3488      3485
      3492      3491      3494      3492      3491      3493      3493      3491      3494
      3494      3497      3500      3494      3497      3499      3494      3497      3498
      3495      3494      3491      3495      3494      3497      3495      3494      3496
      3496      3494      3491      3496      3494      3497      3497      3494      3491
      3498      3497      3500      3498      3497      3499      3499      3497      3500
      3500      3503      3506      3500      3503      3505      3500      3503      3504
      3501      3500      3497      3501      3500      3503      3501      3500      3502
      3502      3500      3497      3502      3500      3503      3503      3500      3497
      3504      3503      3506      3504      3503      3505      3505      3503      3506
      3506      3509      3512      3506      3509      3511      3506      3509      3510
      3507      3506      3503      3507      3506      3509      3507      3506      3508
      3508      3506      3503      3508      3506      3509      3509      3506      3503
      3510      3509      3512      3510      3509      3511      3511      3509      3512
      3512      3515      3518      3512      3515      3517      3512      3515      3516
      3513      3512      3509      3513      3512      3515      3513      3512      3514
      3514      3512      3509      3514      3512      3515      3515      3512      3509
      3516      3515      3518      3516      3515      3517      3517      3515      3518
      3518      3521      3524      3518      3521      3523      3518      3521      3522
      3519      3518      3515      3519      3518      3521      3519      3518      3520
      3520      3518      3515      3520      3518      3521      3521      3518      3515
      3522      3521      3524      3522      3521      3523      3523      3521      3524
      3524      3527      3530      3524      3527      3529      3524      3527      3528
      3525      3524      3521      3525      3524      3527      3525      3524      3526
      3526      3524      3521      3526      3524      3527      3527      3524      3521
      3528      3527      3530      3528      3527      3529      3529      3527      3530
      3530      3533      3536      3530      3533      3535      3530      3533      3534
      3531      3530      3527      3531      3530      3533      3531      3530      3532
      3532      3530      3527      3532      3530      3533      3533      3530      3527
      3534      3533      3536      3534      3533      3535      3535      3533      3536
      3536      3539      3542      3536      3539      3541      3536      3539      3540
      3537      3536      3533      3537      3536      3539      3537      3536      3538
      3538      3536      3533      3538      3536      3539      3539      3536      3533
      3540      3539      3542      3540      3539      3541      3541      3539      3542
      3542      3545      3548      3542      3545      3547      3542      3545      3546
      3543      3542      3539      3543      3542      3545      3543      3542      3544
      3544      3542      3539      3544      3542      3545      3545      3542      3539
      3546      3545      3548      3546      3545      3547      3547      3545      3548
      3548      3551      3554      3548      3551      3553      3548      3551      3552
      3549      3548      3545      3549      3548      3551      3549      3548      3550
      3550      3548      3545      3550      3548      3551      3551      3548      3545
      3552      3551      3554      3552      3551      3553      3553      3551      3554
      3554      3557      3560      3554      3557      3559      3554      3557      3558
      3555      3554      3551      3555      3554      3557      3555      3554      3556
      3556      3554      3551      3556      3554      3557      3557      3554      3551
      3558      3557      3560      3558      3557      3559      3559      3557      3560
      3560      3563      3566      3560      3563      3565      3560      3563      3564
      3561      3560      3557      3561      3560      3563      3561      3560      3562
      3562      3560      3557      3562      3560      3563      3563      3560      3557
      3564      3563      3566      3564      3563      3565      3565      3563      3566
      3566      3569      3572      3566      3569      3571      3566      3569      3570
      3567      3566      3563      3567      3566      3569      3567      3566      3568
      3568      3566      3563      3568      3566      3569      3569      3566      3563
      3570      3569      3572      3570      3569      3571      3571      3569      3572
      3572      3575      3578      3572      3575      3577      3572      3575      3576
      3573      3572      3569      3573      3572      3575      3573      3572      3574
      3574      3572      3569      3574      3572      3575      3575      3572      3569
      3576      3575      3578      3576      3575      3577      3577      3575      3578
      3578      3581      3584      3578      3581      3583      3578      3581      3582
      3579      3578      3575      3579      3578      3581      3579      3578      3580
      3580      3578      3575      3580      3578      3581      3581      3578      3575
      3582      3581      3584      3582      3581      3583      3583      3581      3584
      3584      3587      3590      3584      3587      3589      3584      3587      3588
      3585      3584      3581      3585      3584      3587      3585      3584      3586
      3586      3584      3581      3586      3584      3587      3587      3584      3581
      3588      3587      3590      3588      3587      3589      3589      3587      3590
      3590      3593      3596      3590      3593      3595      3590      3593      3594
      3591      3590      3587      3591      3590      3593      3591      3590      3592
      3592      3590      3587      3592      3590      3593      3593      3590      3587
      3594      3593      3596      3594      3593      3595      3595      3593      3596
      3596      3599      3602      3596      3599      3601      3596      3599      3600
      3597      3596      3593      3597      3596      3599      3597      3596      3598
      3598      3596      3593      3598      3596      3599      3599      3596      3593
      3600      3599      3602      3600      3599      3601      3601      3599      3602
      3602      3605      3608      3602      3605      3607      3602      3605      3606
      3603      3602      3599      3603      3602      3605      3603      3602      3604
      3604      3602      3599      3604      3602      3605      3605      3602      3599
      3606      3605      3608      3606      3605      3607      3607      3605      3608
      3608      3611      3614      3608      3611      3613      3608      3611      3612
      3609      3608      3605      3609      3608      3611      3609      3608      3610
      3610      3608      3605      3610      3608      3611      3611      3608      3605
      3612      3611      3614      3612      3611      3613      3613      3611      3614
      3614      3617      3620      3614      3617      3619      3615      3614      3611
      3615      3614      3617      3615      3614      3616      3616      3614      3611
      3616      3614      3617      3617      3614      3611      3618      3617      3620
      3618      3617      3619      3618      3617      3614      3619      3617      3620
      3621      3625      3628      3621      3625      3627      3621      3625      3626
      3622      3621      3625      3622      3621      3624      3623      3621      3625
      3623      3621      3624      3623      3621      3622      3624      3621      3625
      3626      3625      3628      3626      3625      3627      3627      3625      3628
      3628      3631      3634      3628      3631      3633      3628      3631      3632
      3629      3628      3625      3629      3628      3631      3629      3628      3630
      3630      3628      3625      3630      3628      3631      3631      3628      3625
      3632      3631      3634      3632      3631      3633      3633      3631      3634
      3634      3637      3640      3634      3637      3639      3634      3637      3638
      3635      3634      3631      3635      3634      3637      3635      3634      3636
      3636      3634      3631      3636      3634      3637      3637      3634      3631
      3638      3637      3640      3638      3637      3639      3639      3637      3640
      3640      3643      3646      3640      3643      3645      3640      3643      3644
      3641      3640      3637      3641      3640      3643      3641      3640      3642
      3642      3640      3637      3642      3640      3643      3643      3640      3637
      3644      3643      3646      3644      3643      3645      3645      3643      3646
      3646      3649      3652      3646      3649      3651      3646      3649      3650
      3647      3646      3643      3647      3646      3649      3647      3646      3648
      3648      3646      3643      3648      3646      3649      3649      3646      3643
      3650      3649      3652      3650      3649      3651      3651      3649      3652
      3652      3655      3658      3652      3655      3657      3652      3655      3656
      3653      3652      3649      3653      3652      3655      3653      3652      3654
      3654      3652      3649      3654      3652      3655      3655      3652      3649
      3656      3655      3658      3656      3655      3657      3657      3655      3658
      3658      3661      3664      3658      3661      3663      3658      3661      3662
      3659      3658      3655      3659      3658      3661      3659      3658      3660
      3660      3658      3655      3660      3658      3661      3661      3658      3655
      3662      3661      3664      3662      3661      3663      3663      3661      3664
      3664      3667      3670      3664      3667      3669      3664      3667      3668
      3665      3664      3661      3665      3664      3667      3665      3664      3666
      3666      3664      3661      3666      3664      3667      3667      3664      3661
      3668      3667      3670      3668      3667      3669      3669      3667      3670
      3670      3673      3676      3670      3673      3675      3670      3673      3674
      3671      3670      3667      3671      3670      3673      3671      3670      3672
      3672      3670      3667      3672      3670      3673      3673      3670      3667
      3674      3673      3676      3674      3673      3675      3675      3673      3676
      3676      3679      3682      3676      3679      3681      3676      3679      3680
      3677      3676      3673      3677      3676      3679      3677      3676      3678
      3678      3676      3673      3678      3676      3679      3679      3676      3673
      3680      3679      3682      3680      3679      3681      3681      3679      3682
      3682      3685      3688      3682      3685      3687      3682      3685      3686
      3683      3682      3679      3683      3682      3685      3683      3682      3684
      3684      3682      3679      3684      3682      3685      3685      3682      3679
      3686      3685      3688      3686      3685      3687      3687      3685      3688
      3688      3691      3694      3688      3691      3693      3688      3691      3692
      3689      3688      3685      3689      3688      3691      3689      3688      3690
      3690      3688      3685      3690      3688      3691      3691      3688      3685
      3692      3691      3694      3692      3691      3693      3693      3691      3694
      3694      3697      3700      3694      3697      3699      3694      3697      3698
      3695      3694      3691      3695      3694      3697      3695      3694      3696
      3696      3694      3691      3696      3694      3697      3697      3694      3691
      3698      3697      3700      3698      3697      3699      3699      3697      3700
      3700      3703      3706      3700      3703      3705      3700      3703      3704
      3701      3700      3697      3701      3700      3703      3701      3700      3702
      3702      3700      3697      3702      3700      3703      3703      3700      3697
      3704      3703      3706      3704      3703      3705      3705      3703      3706
      3706      3709      3712      3706      3709      3711      3706      3709      3710
      3707      3706      3703      3707      3706      3709      3707      3706      3708
      3708      3706      3703      3708      3706      3709      3709      3706      3703
      3710      3709      3712      3710      3709      3711      3711      3709      3712
      3712      3715      3718      3712      3715      3717      3712      3715      3716
      3713      3712      3709      3713      3712      3715      3713      3712      3714
      3714      3712      3709      3714      3712      3715      3715      3712      3709
      3716      3715      3718      3716      3715      3717      3717      3715      3718
      3718      3721      3724      3718      3721      3723      3718      3721      3722
      3719      3718      3715      3719      3718      3721      3719      3718      3720
      3720      3718      3715      3720      3718      3721      3721      3718      3715
      3722      3721      3724      3722      3721      3723      3723      3721      3724
      3724      3727      3730      3724      3727      3729      3724      3727      3728
      3725      3724      3721      3725      3724      3727      3725      3724      3726
      3726      3724      3721      3726      3724      3727      3727      3724      3721
      3728      3727      3730      3728      3727      3729      3729      3727      3730
      3730      3733      3736      3730      3733      3735      3730      3733      3734
      3731      3730      3727      3731      3730      3733      3731      3730      3732
      3732      3730      3727      3732      3730      3733      3733      3730      3727
      3734      3733      3736      3734      3733      3735      3735      3733      3736
      3736      3739      3742      3736      3739      3741      3736      3739      3740
      3737      3736      3733      3737      3736      3739      3737      3736      3738
      3738      3736      3733      3738      3736      3739      3739      3736      3733
      3740      3739      3742      3740      3739      3741      3741      3739      3742
      3742      3745      3748      3742      3745      3747      3742      3745      3746
      3743      3742      3739      3743      3742      3745      3743      3742      3744
      3744      3742      3739      3744      3742      3745      3745      3742      3739
      3746      3745      3748      3746      3745      3747      3747      3745      3748
      3748      3751      3754      3748      3751      3753      3748      3751      3752
      3749      3748      3745      3749      3748      3751      3749      3748      3750
      3750      3748      3745      3750      3748      3751      3751      3748      3745
      3752      3751      3754      3752      3751      3753      3753      3751      3754
      3754      3757      3760      3754      3757      3759      3754      3757      3758
      3755      3754      3751      3755      3754      3757      3755      3754      3756
      3756      3754      3751      3756      3754      3757      3757      3754      3751
      3758      3757      3760      3758      3757      3759      3759      3757      3760
      3760      3763      3766      3760      3763      3765      3760      3763      3764
      3761      3760      3757      3761      3760      3763      3761      3760      3762
      3762      3760      3757      3762      3760      3763      3763      3760      3757
      3764      3763      3766      3764      3763      3765      3765      3763      3766
      3766      3769      3772      3766      3769      3771      3766      3769      3770
      3767      3766      3763      3767      3766      3769      3767      3766      3768
      3768      3766      3763      3768      3766      3769      3769      3766      3763
      3770      3769      3772      3770      3769      3771      3771      3769      3772
      3772      3775      3778      3772      3775      3777      3772      3775      3776
      3773      3772      3769      3773      3772      3775      3773      3772      3774
      3774      3772      3769      3774      3772      3775      3775      3772      3769
      3776      3775      3778      3776      3775      3777      3777      3775      3778
      3778      3781      3784      3778      3781      3783      3778      3781      3782
      3779      3778      3775      3779      3778      3781      3779      3778      3780
      3780      3778      3775      3780      3778      3781      3781      3778      3775
      3782      3781      3784      3782      3781      3783      3783      3781      3784
      3784      3787      3790      3784      3787      3789      3784      3787      3788
      3785      3784      3781      3785      3784      3787      3785      3784      3786
      3786      3784      3781      3786      3784      3787      3787      3784      3781
      3788      3787      3790      3788      3787      3789      3789      3787      3790
      3790      3793      3796      3790      3793      3795      3790      3793      3794
      3791      3790      3787      3791      3790      3793      3791      3790      3792
      3792      3790      3787      3792      3790      3793      3793      3790      3787
      3794      3793      3796      3794      3793      3795      3795      3793      3796
      3796      3799      3802      3796      3799      3801      3796      3799      3800
      3797      3796      3793      3797      3796      3799      3797      3796      3798
      3798      3796      3793      3798      3796      3799      3799      3796      3793
      3800      3799      3802      3800      3799      3801      3801      3799      3802
      3802      3805      3808      3802      3805      3807      3802      3805      3806
      3803      3802      3799      3803      3802      3805      3803      3802      3804
      3804      3802      3799      3804      3802      3805      3805      3802      3799
      3806      3805      3808      3806      3805      3807      3807      3805      3808
      3808      3811      3814      3808      3811      3813      3808      3811      3812
      3809      3808      3805      3809      3808      3811      3809      3808      3810
      3810      3808      3805      3810      3808      3811      3811      3808      3805
      3812      3811      3814      3812      3811      3813      3813      3811      3814
      3814      3817      3820      3814      3817      3819      3814      3817      3818
      3815      3814      3811      3815      3814      3817      3815      3814      3816
      3816      3814      3811      3816      3814      3817      3817      3814      3811
      3818      3817      3820      3818      3817      3819      3819      3817      3820
      3820      3823      3826      3820      3823      3825      3820      3823      3824
      3821      3820      3817      3821      3820      3823      3821      3820      3822
      3822      3820      3817      3822      3820      3823      3823      3820      3817
      3824      3823      3826      3824      3823      3825      3825      3823      3826
      3826      3829      3832      3826      3829      3831      3826      3829      3830
      3827      3826      3823      3827      3826      3829      3827      3826      3828
      3828      3826      3823      3828      3826      3829      3829      3826      3823
      3830      3829      3832      3830      3829      3831      3831      3829      3832
      3832      3835      3838      3832      3835      3837      3832      3835      3836
      3833      3832      3829      3833      3832      3835      3833      3832      3834
      3834      3832      3829      3834      3832      3835      3835      3832      3829
      3836      3835      3838      3836      3835      3837      3837      3835      3838
      3838      3841      3844      3838      3841      3843      3838      3841      3842
      3839      3838      3835      3839      3838      3841      3839      3838      3840
      3840      3838      3835      3840      3838      3841      3841      3838      3835
      3842      3841      3844      3842      3841      3843      3843      3841      3844
      3844      3847      3850      3844      3847      3849      3844      3847      3848
      3845      3844      3841      3845      3844      3847      3845      3844      3846
      3846      3844      3841      3846      3844      3847      3847      3844      3841
      3848      3847      3850      3848      3847      3849      3849      3847      3850
      3850      3853      3856      3850      3853      3855      3850      3853      3854
      3851      3850      3847      3851      3850      3853      3851      3850      3852
      3852      3850      3847      3852      3850      3853      3853      3850      3847
      3854      3853      3856      3854      3853      3855      3855      3853      3856
      3856      3859      3862      3856      3859      3861      3856      3859      3860
      3857      3856      3853      3857      3856      3859      3857      3856      3858
      3858      3856      3853      3858      3856      3859      3859      3856      3853
      3860      3859      3862      3860      3859      3861      3861      3859      3862
      3862      3865      3868      3862      3865      3867      3862      3865      3866
      3863      3862      3859      3863      3862      3865      3863      3862      3864
      3864      3862      3859      3864      3862      3865      3865      3862      3859
      3866      3865      3868      3866      3865      3867      3867      3865      3868
      3868      3871      3874      3868      3871      3873      3868      3871      3872
      3869      3868      3865      3869      3868      3871      3869      3868      3870
      3870      3868      3865      3870      3868      3871      3871      3868      3865
      3872      3871      3874      3872      3871      3873      3873      3871      3874
      3874      3877      3880      3874      3877      3879      3874      3877      3878
      3875      3874      3871      3875      3874      3877      3875      3874      3876
      3876      3874      3871      3876      3874      3877      3877      3874      3871
      3878      3877      3880      3878      3877      3879      3879      3877      3880
      3880      3883      3886      3880      3883      3885      3880      3883      3884
      3881      3880      3877      3881      3880      3883      3881      3880      3882
      3882      3880      3877      3882      3880      3883      3883      3880      3877
      3884      3883      3886      3884      3883      3885      3885      3883      3886
      3886      3889      3892      3886      3889      3891      3886      3889      3890
      3887      3886      3883      3887      3886      3889      3887      3886      3888
      3888      3886      3883      3888      3886      3889      3889      3886      3883
      3890      3889      3892      3890      3889      3891      3891      3889      3892
      3892      3895      3898      3892      3895      3897      3892      3895      3896
      3893      3892      3889      3893      3892      3895      3893      3892      3894
      3894      3892      3889      3894      3892      3895      3895      3892      3889
      3896      3895      3898      3896      3895      3897      3897      3895      3898
      3898      3901      3904      3898      3901      3903      3898      3901      3902
      3899      3898      3895      3899      3898      3901      3899      3898      3900
      3900      3898      3895      3900      3898      3901      3901      3898      3895
      3902      3901      3904      3902      3901      3903      3903      3901      3904
      3904      3907      3910      3904      3907      3909      3904      3907      3908
      3905      3904      3901      3905      3904      3907      3905      3904      3906
      3906      3904      3901      3906      3904      3907      3907      3904      3901
      3908      3907      3910      3908      3907      3909      3909      3907      3910
      3910      3913      3916      3910      3913      3915      3910      3913      3914
      3911      3910      3907      3911      3910      3913      3911      3910      3912
      3912      3910      3907      3912      3910      3913      3913      3910      3907
      3914      3913      3916      3914      3913      3915      3915      3913      3916
      3916      3919      3922      3916      3919      3921      3916      3919      3920
      3917      3916      3913      3917      3916      3919      3917      3916      3918
      3918      3916      3913      3918      3916      3919      3919      3916      3913
      3920      3919      3922      3920      3919      3921      3921      3919      3922
      3922      3925      3928      3922      3925      3927      3922      3925      3926
      3923      3922      3919      3923      3922      3925      3923      3922      3924
      3924      3922      3919      3924      3922      3925      3925      3922      3919
      3926      3925      3928      3926      3925      3927      3927      3925      3928
      3928      3931      3934      3928      3931      3933      3928      3931      3932
      3929      3928      3925      3929      3928      3931      3929      3928      3930
      3930      3928      3925      3930      3928      3931      3931      3928      3925
      3932      3931      3934      3932      3931      3933      3933      3931      3934
      3934      3937      3940      3934      3937      3939      3934      3937      3938
      3935      3934      3931      3935      3934      3937      3935      3934      3936
      3936      3934      3931      3936      3934      3937      3937      3934      3931
      3938      3937      3940      3938      3937      3939      3939      3937      3940
      3940      3943      3946      3940      3943      3945      3940      3943      3944
      3941      3940      3937      3941      3940      3943      3941      3940      3942
      3942      3940      3937      3942      3940      3943      3943      3940      3937
      3944      3943      3946      3944      3943      3945      3945      3943      3946
      3946      3949      3952      3946      3949      3951      3946      3949      3950
      3947      3946      3943      3947      3946      3949      3947      3946      3948
      3948      3946      3943      3948      3946      3949      3949      3946      3943
      3950      3949      3952      3950      3949      3951      3951      3949      3952
      3952      3955      3958      3952      3955      3957      3952      3955      3956
      3953      3952      3949      3953      3952      3955      3953      3952      3954
      3954      3952      3949      3954      3952      3955      3955      3952      3949
      3956      3955      3958      3956      3955      3957      3957      3955      3958
      3958      3961      3964      3958      3961      3963      3958      3961      3962
      3959      3958      3955      3959      3958      3961      3959      3958      3960
      3960      3958      3955      3960      3958      3961      3961      3958      3955
      3962      3961      3964      3962      3961      3963      3963      3961      3964
      3964      3967      3970      3964      3967      3969      3964      3967      3968
      3965      3964      3961      3965      3964      3967      3965      3964      3966
      3966      3964      3961      3966      3964      3967      3967      3964      3961
      3968      3967      3970      3968      3967      3969      3969      3967      3970
      3970      3973      3976      3970      3973      3975      3970      3973      3974
      3971      3970      3967      3971      3970      3973      3971      3970      3972
      3972      3970      3967      3972      3970      3973      3973      3970      3967
      3974      3973      3976      3974      3973      3975      3975      3973      3976
      3976      3979      3982      3976      3979      3981      3977      3976      3973
      3977      3976      3979      3977      3976      3978      3978      3976      3973
      3978      3976      3979      3979      3976      3973      3980      3979      3982
      3980      3979      3981      3980      3979      3976      3981      3979      3982
      3983      3987      3990      3983      3987      3989      3983      3987      3988
      3984      3983      3987      3984      3983      3986      3985      3983      3987
      3985      3983      3986      3985      3983      3984      3986      3983      3987
      3988      3987      3990      3988      3987      3989      3989      3987      3990
      3990      3993      3996      3990      3993      3995      3990      3993      3994
      3991      3990      3987      3991      3990      3993      3991      3990      3992
      3992      3990      3987      3992      3990      3993      3993      3990      3987
      3994      3993      3996      3994      3993      3995      3995      3993      3996
      3996      3999      4002      3996      3999      4001      3996      3999      4000
      3997      3996      3993      3997      3996      3999      3997      3996      3998
      3998      3996      3993      3998      3996      3999      3999      3996      3993
      4000      3999      4002      4000      3999      4001      4001      3999      4002
      4002      4005      4008      4002      4005      4007      4002      4005      4006
      4003      4002      3999      4003      4002      4005      4003      4002      4004
      4004      4002      3999      4004      4002      4005      4005      4002      3999
      4006      4005      4008      4006      4005      4007      4007      4005      4008
      4008      4011      4014      4008      4011      4013      4008      4011      4012
      4009      4008      4005      4009      4008      4011      4009      4008      4010
      4010      4008      4005      4010      4008      4011      4011      4008      4005
      4012      4011      4014      4012      4011      4013      4013      4011      4014
      4014      4017      4020      4014      4017      4019      4014      4017      4018
      4015      4014      4011      4015      4014      4017      4015      4014      4016
      4016      4014      4011      4016      4014      4017      4017      4014      4011
      4018      4017      4020      4018      4017      4019      4019      4017      4020
      4020      4023      4026      4020      4023      4025      4020      4023      4024
      4021      4020      4017      4021      4020      4023      4021      4020      4022
      4022      4020      4017      4022      4020      4023      4023      4020      4017
      4024      4023      4026      4024      4023      4025      4025      4023      4026
      4026      4029      4032      4026      4029      4031      4026      4029      4030
      4027      4026      4023      4027      4026      4029      4027      4026      4028
      4028      4026      4023      4028      4026      4029      4029      4026      4023
      4030      4029      4032      4030      4029      4031      4031      4029      4032
      4032      4035      4038      4032      4035      4037      4032      4035      4036
      4033      4032      4029      4033      4032      4035      4033      4032      4034
      4034      4032      4029      4034      4032      4035      4035      4032      4029
      4036      4035      4038      4036      4035      4037      4037      4035      4038
      4038      4041      4044      4038      4041      4043      4038      4041      4042
      4039      4038      4035      4039      4038      4041      4039      4038      4040
      4040      4038      4035      4040      4038      4041      4041      4038      4035
      4042      4041      4044      4042      4041      4043      4043      4041      4044
      4044      4047      4050      4044      4047      4049      4044      4047      4048
      4045      4044      4041      4045      4044      4047      4045      4044      4046
      4046      4044      4041      4046      4044      4047      4047      4044      4041
      4048      4047      4050      4048      4047      4049      4049      4047      4050
      4050      4053      4056      4050      4053      4055      4050      4053      4054
      4051      4050      4047      4051      4050      4053      4051      4050      4052
      4052      4050      4047      4052      4050      4053      4053      4050      4047
      4054      4053      4056      4054      4053      4055      4055      4053      4056
      4056      4059      4062      4056      4059      4061      4056      4059      4060
      4057      4056      4053      4057      4056      4059      4057      4056      4058
      4058      4056      4053      4058      4056      4059      4059      4056      4053
      4060      4059      4062      4060      4059      4061      4061      4059      4062
      4062      4065      4068      4062      4065      4067      4062      4065      4066
      4063      4062      4059      4063      4062      4065      4063      4062      4064
      4064      4062      4059      4064      4062      4065      4065      4062      4059
      4066      4065      4068      4066      4065      4067      4067      4065      4068
      4068      4071      4074      4068      4071      4073      4068      4071      4072
      4069      4068      4065      4069      4068      4071      4069      4068      4070
      4070      4068      4065      4070      4068      4071      4071      4068      4065
      4072      4071      4074      4072      4071      4073      4073      4071      4074
      4074      4077      4080      4074      4077      4079      4074      4077      4078
      4075      4074      4071      4075      4074      4077      4075      4074      4076
      4076      4074      4071      4076      4074      4077      4077      4074      4071
      4078      4077      4080      4078      4077      4079      4079      4077      4080
      4080      4083      4086      4080      4083      4085      4080      4083      4084
      4081      4080      4077      4081      4080      4083      4081      4080      4082
      4082      4080      4077      4082      4080      4083      4083      4080      4077
      4084      4083      4086      4084      4083      4085      4085      4083      4086
      4086      4089      4092      4086      4089      4091      4086      4089      4090
      4087      4086      4083      4087      4086      4089      4087      4086      4088
      4088      4086      4083      4088      4086      4089      4089      4086      4083
      4090      4089      4092      4090      4089      4091      4091      4089      4092
      4092      4095      4098      4092      4095      4097      4092      4095      4096
      4093      4092      4089      4093      4092      4095      4093      4092      4094
      4094      4092      4089      4094      4092      4095      4095      4092      4089
      4096      4095      4098      4096      4095      4097      4097      4095      4098
      4098      4101      4104      4098      4101      4103      4098      4101      4102
      4099      4098      4095      4099      4098      4101      4099      4098      4100
      4100      4098      4095      4100      4098      4101      4101      4098      4095
      4102      4101      4104      4102      4101      4103      4103      4101      4104
      4104      4107      4110      4104      4107      4109      4104      4107      4108
      4105      4104      4101      4105      4104      4107      4105      4104      4106
      4106      4104      4101      4106      4104      4107      4107      4104      4101
      4108      4107      4110      4108      4107      4109      4109      4107      4110
      4110      4113      4116      4110      4113      4115      4110      4113      4114
      4111      4110      4107      4111      4110      4113      4111      4110      4112
      4112      4110      4107      4112      4110      4113      4113      4110      4107
      4114      4113      4116      4114      4113      4115      4115      4113      4116
      4116      4119      4122      4116      4119      4121      4116      4119      4120
      4117      4116      4113      4117      4116      4119      4117      4116      4118
      4118      4116      4113      4118      4116      4119      4119      4116      4113
      4120      4119      4122      4120      4119      4121      4121      4119      4122
      4122      4125      4128      4122      4125      4127      4122      4125      4126
      4123      4122      4119      4123      4122      4125      4123      4122      4124
      4124      4122      4119      4124      4122      4125      4125      4122      4119
      4126      4125      4128      4126      4125      4127      4127      4125      4128
      4128      4131      4134      4128      4131      4133      4128      4131      4132
      4129      4128      4125      4129      4128      4131      4129      4128      4130
      4130      4128      4125      4130      4128      4131      4131      4128      4125
      4132      4131      4134      4132      4131      4133      4133      4131      4134
      4134      4137      4140      4134      4137      4139      4134      4137      4138
      4135      4134      4131      4135      4134      4137      4135      4134      4136
      4136      4134      4131      4136      4134      4137      4137      4134      4131
      4138      4137      4140      4138      4137      4139      4139      4137      4140
      4140      4143      4146      4140      4143      4145      4140      4143      4144
      4141      4140      4137      4141      4140      4143      4141      4140      4142
      4142      4140      4137      4142      4140      4143      4143      4140      4137
      4144      4143      4146      4144      4143      4145      4145      4143      4146
      4146      4149      4152      4146      4149      4151      4146      4149      4150
      4147      4146      4143      4147      4146      4149      4147      4146      4148
      4148      4146      4143      4148      4146      4149      4149      4146      4143
      4150      4149      4152      4150      4149      4151      4151      4149      4152
      4152      4155      4158      4152      4155      4157      4152      4155      4156
      4153      4152      4149      4153      4152      4155      4153      4152      4154
      4154      4152      4149      4154      4152      4155      4155      4152      4149
      4156      4155      4158      4156      4155      4157      4157      4155      4158
      4158      4161      4164      4158      4161      4163      4158      4161      4162
      4159      4158      4155      4159      4158      4161      4159      4158      4160
      4160      4158      4155      4160      4158      4161      4161      4158      4155
      4162      4161      4164      4162      4161      4163      4163      4161      4164
      4164      4167      4170      4164      4167      4169      4164      4167      4168
      4165      4164      4161      4165      4164      4167      4165      4164      4166
      4166      4164      4161      4166      4164      4167      4167      4164      4161
      4168      4167      4170      4168      4167      4169      4169      4167      4170
      4170      4173      4176      4170      4173      4175      4170      4173      4174
      4171      4170      4167      4171      4170      4173      4171      4170      4172
      4172      4170      4167      4172      4170      4173      4173      4170      4167
      4174      4173      4176      4174      4173      4175      4175      4173      4176
      4176      4179      4182      4176      4179      4181      4176      4179      4180
      4177      4176      4173      4177      4176      4179      4177      4176      4178
      4178      4176      4173      4178      4176      4179      4179      4176      4173
      4180      4179      4182      4180      4179      4181      4181      4179      4182
      4182      4185      4188      4182      4185      4187      4182      4185      4186
      4183      4182      4179      4183      4182      4185      4183      4182      4184
      4184      4182      4179      4184      4182      4185      4185      4182      4179
      4186      4185      4188      4186      4185      4187      4187      4185      4188
      4188      4191      4194      4188      4191      4193      4188      4191      4192
      4189      4188      4185      4189      4188      4191      4189      4188      4190
      4190      4188      4185      4190      4188      4191      4191      4188      4185
      4192      4191      4194      4192      4191      4193      4193      4191      4194
      4194      4197      4200      4194      4197      4199      4194      4197      4198
      4195      4194      4191      4195      4194      4197      4195      4194      4196
      4196      4194      4191      4196      4194      4197      4197      4194      4191
      4198      4197      4200      4198      4197      4199      4199      4197      4200
      4200      4203      4206      4200      4203      4205      4200      4203      4204
      4201      4200      4197      4201      4200      4203      4201      4200      4202
      4202      4200      4197      4202      4200      4203      4203      4200      4197
      4204      4203      4206      4204      4203      4205      4205      4203      4206
      4206      4209      4212      4206      4209      4211      4206      4209      4210
      4207      4206      4203      4207      4206      4209      4207      4206      4208
      4208      4206      4203      4208      4206      4209      4209      4206      4203
      4210      4209      4212      4210      4209      4211      4211      4209      4212
      4212      4215      4218      4212      4215      4217      4212      4215      4216
      4213      4212      4209      4213      4212      4215      4213      4212      4214
      4214      4212      4209      4214      4212      4215      4215      4212      4209
      4216      4215      4218      4216      4215      4217      4217      4215      4218
      4218      4221      4224      4218      4221      4223      4218      4221      4222
      4219      4218      4215      4219      4218      4221      4219      4218      4220
      4220      4218      4215      4220      4218      4221      4221      4218      4215
      4222      4221      4224      4222      4221      4223      4223      4221      4224
      4224      4227      4230      4224      4227      4229      4224      4227      4228
      4225      4224      4221      4225      4224      4227      4225      4224      4226
      4226      4224      4221      4226      4224      4227      4227      4224      4221
      4228      4227      4230      4228      4227      4229      4229      4227      4230
      4230      4233      4236      4230      4233      4235      4230      4233      4234
      4231      4230      4227      4231      4230      4233      4231      4230      4232
      4232      4230      4227      4232      4230      4233      4233      4230      4227
      4234      4233      4236      4234      4233      4235      4235      4233      4236
      4236      4239      4242      4236      4239      4241      4236      4239      4240
      4237      4236      4233      4237      4236      4239      4237      4236      4238
      4238      4236      4233      4238      4236      4239      4239      4236      4233
      4240      4239      4242      4240      4239      4241      4241      4239      4242
      4242      4245      4248      4242      4245      4247      4242      4245      4246
      4243      4242      4239      4243      4242      4245      4243      4242      4244
      4244      4242      4239      4244      4242      4245      4245      4242      4239
      4246      4245      4248      4246      4245      4247      4247      4245      4248
      4248      4251      4254      4248      4251      4253      4248      4251      4252
      4249      4248      4245      4249      4248      4251      4249      4248      4250
      4250      4248      4245      4250      4248      4251      4251      4248      4245
      4252      4251      4254      4252      4251      4253      4253      4251      4254
      4254      4257      4260      4254      4257      4259      4254      4257      4258
      4255      4254      4251      4255      4254      4257      4255      4254      4256
      4256      4254      4251      4256      4254      4257      4257      4254      4251
      4258      4257      4260      4258      4257      4259      4259      4257      4260
      4260      4263      4266      4260      4263      4265      4260      4263      4264
      4261      4260      4257      4261      4260      4263      4261      4260      4262
      4262      4260      4257      4262      4260      4263      4263      4260      4257
      4264      4263      4266      4264      4263      4265      4265      4263      4266
      4266      4269      4272      4266      4269      4271      4266      4269      4270
      4267      4266      4263      4267      4266      4269      4267      4266      4268
      4268      4266      4263      4268      4266      4269      4269      4266      4263
      4270      4269      4272      4270      4269      4271      4271      4269      4272
      4272      4275      4278      4272      4275      4277      4272      4275      4276
      4273      4272      4269      4273      4272      4275      4273      4272      4274
      4274      4272      4269      4274      4272      4275      4275      4272      4269
      4276      4275      4278      4276      4275      4277      4277      4275      4278
      4278      4281      4284      4278      4281      4283      4278      4281      4282
      4279      4278      4275      4279      4278      4281      4279      4278      4280
      4280      4278      4275      4280      4278      4281      4281      4278      4275
      4282      4281      4284      4282      4281      4283      4283      4281      4284
      4284      4287      4290      4284      4287      4289      4284      4287      4288
      4285      4284      4281      4285      4284      4287      4285      4284      4286
      4286      4284      4281      4286      4284      4287      4287      4284      4281
      4288      4287      4290      4288      4287      4289      4289      4287      4290
      4290      4293      4296      4290      4293      4295      4290      4293      4294
      4291      4290      4287      4291      4290      4293      4291      4290      4292
      4292      4290      4287      4292      4290      4293      4293      4290      4287
      4294      4293      4296      4294      4293      4295      4295      4293      4296
      4296      4299      4302      4296      4299      4301      4296      4299      4300
      4297      4296      4293      4297      4296      4299      4297      4296      4298
      4298      4296      4293      4298      4296      4299      4299      4296      4293
      4300      4299      4302      4300      4299      4301      4301      4299      4302
      4302      4305      4308      4302      4305      4307      4302      4305      4306
      4303      4302      4299      4303      4302      4305      4303      4302      4304
      4304      4302      4299      4304      4302      4305      4305      4302      4299
      4306      4305      4308      4306      4305      4307      4307      4305      4308
      4308      4311      4314      4308      4311      4313      4308      4311      4312
      4309      4308      4305      4309      4308      4311      4309      4308      4310
      4310      4308      4305      4310      4308      4311      4311      4308      4305
      4312      4311      4314      4312      4311      4313      4313      4311      4314
      4314      4317      4320      4314      4317      4319      4314      4317      4318
      4315      4314      4311      4315      4314      4317      4315      4314      4316
      4316      4314      4311      4316      4314      4317      4317      4314      4311
      4318      4317      4320      4318      4317      4319      4319      4317      4320
      4320      4323      4326      4320      4323      4325      4320      4323      4324
      4321      4320      4317      4321      4320      4323      4321      4320      4322
      4322      4320      4317      4322      4320      4323      4323      4320      4317
      4324      4323      4326      4324      4323      4325      4325      4323      4326
      4326      4329      4332      4326      4329      4331      4326      4329      4330
      4327      4326      4323      4327      4326      4329      4327      4326      4328
      4328      4326      4323      4328      4326      4329      4329      4326      4323
      4330      4329      4332      4330      4329      4331      4331      4329      4332
      4332      4335      4338      4332      4335      4337      4332      4335      4336
      4333      4332      4329      4333      4332      4335      4333      4332      4334
      4334      4332      4329      4334      4332      4335      4335      4332      4329
      4336      4335      4338      4336      4335      4337      4337      4335      4338
      4338      4341      4344      4338      4341      4343      4339      4338      4335
      4339      4338      4341      4339      4338      4340      4340      4338      4335
      4340      4338      4341      4341      4338      4335      4342      4341      4344
      4342      4341      4343      4342      4341      4338      4343      4341      4344
      4345      4349      4352      4345      4349      4351      4345      4349      4350
      4346      4345      4349      4346      4345      4348      4347      4345      4349
      4347      4345      4348      4347      4345      4346      4348      4345      4349
      4350      4349      4352      4350      4349      4351      4351      4349      4352
      4352      4355      4358      4352      4355      4357      4352      4355      4356
      4353      4352      4349      4353      4352      4355      4353      4352      4354
      4354      4352      4349      4354      4352      4355      4355      4352      4349
      4356      4355      4358      4356      4355      4357      4357      4355      4358
      4358      4361      4364      4358      4361      4363      4358      4361      4362
      4359      4358      4355      4359      4358      4361      4359      4358      4360
      4360      4358      4355      4360      4358      4361      4361      4358      4355
      4362      4361      4364      4362      4361      4363      4363      4361      4364
      4364      4367      4370      4364      4367      4369      4364      4367      4368
      4365      4364      4361      4365      4364      4367      4365      4364      4366
      4366      4364      4361      4366      4364      4367      4367      4364      4361
      4368      4367      4370      4368      4367      4369      4369      4367      4370
      4370      4373      4376      4370      4373      4375      4370      4373      4374
      4371      4370      4367      4371      4370      4373      4371      4370      4372
      4372      4370      4367      4372      4370      4373      4373      4370      4367
      4374      4373      4376      4374      4373      4375      4375      4373      4376
      4376      4379      4382      4376      4379      4381      4376      4379      4380
      4377      4376      4373      4377      4376      4379      4377      4376      4378
      4378      4376      4373      4378      4376      4379      4379      4376      4373
      4380      4379      4382      4380      4379      4381      4381      4379      4382
      4382      4385      4388      4382      4385      4387      4382      4385      4386
      4383      4382      4379      4383      4382      4385      4383      4382      4384
      4384      4382      4379      4384      4382      4385      4385      4382      4379
      4386      4385      4388      4386      4385      4387      4387      4385      4388
      4388      4391      4394      4388      4391      4393      4388      4391      4392
      4389      4388      4385      4389      4388      4391      4389      4388      4390
      4390      4388      4385      4390      4388      4391      4391      4388      4385
      4392      4391      4394      4392      4391      4393      4393      4391      4394
      4394      4397      4400      4394      4397      4399      4394      4397      4398
      4395      4394      4391      4395      4394      4397      4395      4394      4396
      4396      4394      4391      4396      4394      4397      4397      4394      4391
      4398      4397      4400      4398      4397      4399      4399      4397      4400
      4400      4403      4406      4400      4403      4405      4400      4403      4404
      4401      4400      4397      4401      4400      4403      4401      4400      4402
      4402      4400      4397      4402      4400      4403      4403      4400      4397
      4404      4403      4406      4404      4403      4405      4405      4403      4406
      4406      4409      4412      4406      4409      4411      4406      4409      4410
      4407      4406      4403      4407      4406      4409      4407      4406      4408
      4408      4406      4403      4408      4406      4409      4409      4406      4403
      4410      4409      4412      4410      4409      4411      4411      4409      4412
      4412      4415      4418      4412      4415      4417      4412      4415      4416
      4413      4412      4409      4413      4412      4415      4413      4412      4414
      4414      4412      4409      4414      4412      4415      4415      4412      4409
      4416      4415      4418      4416      4415      4417      4417      4415      4418
      4418      4421      4424      4418      4421      4423      4418      4421      4422
      4419      4418      4415      4419      4418      4421      4419      4418      4420
      4420      4418      4415      4420      4418      4421      4421      4418      4415
      4422      4421      4424      4422      4421      4423      4423      4421      4424
      4424      4427      4430      4424      4427      4429      4424      4427      4428
      4425      4424      4421      4425      4424      4427      4425      4424      4426
      4426      4424      4421      4426      4424      4427      4427      4424      4421
      4428      4427      4430      4428      4427      4429      4429      4427      4430
      4430      4433      4436      4430      4433      4435      4430      4433      4434
      4431      4430      4427      4431      4430      4433      4431      4430      4432
      4432      4430      4427      4432      4430      4433      4433      4430      4427
      4434      4433      4436      4434      4433      4435      4435      4433      4436
      4436      4439      4442      4436      4439      4441      4436      4439      4440
      4437      4436      4433      4437      4436      4439      4437      4436      4438
      4438      4436      4433      4438      4436      4439      4439      4436      4433
      4440      4439      4442      4440      4439      4441      4441      4439      4442
      4442      4445      4448      4442      4445      4447      4442      4445      4446
      4443      4442      4439      4443      4442      4445      4443      4442      4444
      4444      4442      4439      4444      4442      4445      4445      4442      4439
      4446      4445      4448      4446      4445      4447      4447      4445      4448
      4448      4451      4454      4448      4451      4453      4448      4451      4452
      4449      4448      4445      4449      4448      4451      4449      4448      4450
      4450      4448      4445      4450      4448      4451      4451      4448      4445
      4452      4451      4454      4452      4451      4453      4453      4451      4454
      4454      4457      4460      4454      4457      4459      4454      4457      4458
      4455      4454      4451      4455      4454      4457      4455      4454      4456
      4456      4454      4451      4456      4454      4457      4457      4454      4451
      4458      4457      4460      4458      4457      4459      4459      4457      4460
      4460      4463      4466      4460      4463      4465      4460      4463      4464
      4461      4460      4457      4461      4460      4463      4461      4460      4462
      4462      4460      4457      4462      4460      4463      4463      4460      4457
      4464      4463      4466      4464      4463      4465      4465      4463      4466
      4466      4469      4472      4466      4469      4471      4466      4469      4470
      4467      4466      4463      4467      4466      4469      4467      4466      4468
      4468      4466      4463      4468      4466      4469      4469      4466      4463
      4470      4469      4472      4470      4469      4471      4471      4469      4472
      4472      4475      4478      4472      4475      4477      4472      4475      4476
      4473      4472      4469      4473      4472      4475      4473      4472      4474
      4474      4472      4469      4474      4472      4475      4475      4472      4469
      4476      4475      4478      4476      4475      4477      4477      4475      4478
      4478      4481      4484      4478      4481      4483      4478      4481      4482
      4479      4478      4475      4479      4478      4481      4479      4478      4480
      4480      4478      4475      4480      4478      4481      4481      4478      4475
      4482      4481      4484      4482      4481      4483      4483      4481      4484
      4484      4487      4490      4484      4487      4489      4484      4487      4488
      4485      4484      4481      4485      4484      4487      4485      4484      4486
      4486      4484      4481      4486      4484      4487      4487      4484      4481
      4488      4487      4490      4488      4487      4489      4489      4487      4490
      4490      4493      4496      4490      4493      4495      4490      4493      4494
      4491      4490      4487      4491      4490      4493      4491      4490      4492
      4492      4490      4487      4492      4490      4493      4493      4490      4487
      4494      4493      4496      4494      4493      4495      4495      4493      4496
      4496      4499      4502      4496      4499      4501      4496      4499      4500
      4497      4496      4493      4497      4496      4499      4497      4496      4498
      4498      4496      4493      4498      4496      4499      4499      4496      4493
      4500      4499      4502      4500      4499      4501      4501      4499      4502
      4502      4505      4508      4502      4505      4507      4502      4505      4506
      4503      4502      4499      4503      4502      4505      4503      4502      4504
      4504      4502      4499      4504      4502      4505      4505      4502      4499
      4506      4505      4508      4506      4505      4507      4507      4505      4508
      4508      4511      4514      4508      4511      4513      4508      4511      4512
      4509      4508      4505      4509      4508      4511      4509      4508      4510
      4510      4508      4505      4510      4508      4511      4511      4508      4505
      4512      4511      4514      4512      4511      4513      4513      4511      4514
      4514      4517      4520      4514      4517      4519      4514      4517      4518
      4515      4514      4511      4515      4514      4517      4515      4514      4516
      4516      4514      4511      4516      4514      4517      4517      4514      4511
      4518      4517      4520      4518      4517      4519      4519      4517      4520
      4520      4523      4526      4520      4523      4525      4520      4523      4524
      4521      4520      4517      4521      4520      4523      4521      4520      4522
      4522      4520      4517      4522      4520      4523      4523      4520      4517
      4524      4523      4526      4524      4523      4525      4525      4523      4526
      4526      4529      4532      4526      4529      4531      4526      4529      4530
      4527      4526      4523      4527      4526      4529      4527      4526      4528
      4528      4526      4523      4528      4526      4529      4529      4526      4523
      4530      4529      4532      4530      4529      4531      4531      4529      4532
      4532      4535      4538      4532      4535      4537      4532      4535      4536
      4533      4532      4529      4533      4532      4535      4533      4532      4534
      4534      4532      4529      4534      4532      4535      4535      4532      4529
      4536      4535      4538      4536      4535      4537      4537      4535      4538
      4538      4541      4544      4538      4541      4543      4538      4541      4542
      4539      4538      4535      4539      4538      4541      4539      4538      4540
      4540      4538      4535      4540      4538      4541      4541      4538      4535
      4542      4541      4544      4542      4541      4543      4543      4541      4544
      4544      4547      4550      4544      4547      4549      4544      4547      4548
      4545      4544      4541      4545      4544      4547      4545      4544      4546
      4546      4544      4541      4546      4544      4547      4547      4544      4541
      4548      4547      4550      4548      4547      4549      4549      4547      4550
      4550      4553      4556      4550      4553      4555      4550      4553      4554
      4551      4550      4547      4551      4550      4553      4551      4550      4552
      4552      4550      4547      4552      4550      4553      4553      4550      4547
      4554      4553      4556      4554      4553      4555      4555      4553      4556
      4556      4559      4562      4556      4559      4561      4556      4559      4560
      4557      4556      4553      4557      4556      4559      4557      4556      4558
      4558      4556      4553      4558      4556      4559      4559      4556      4553
      4560      4559      4562      4560      4559      4561      4561      4559      4562
      4562      4565      4568      4562      4565      4567      4562      4565      4566
      4563      4562      4559      4563      4562      4565      4563      4562      4564
      4564      4562      4559      4564      4562      4565      4565      4562      4559
      4566      4565      4568      4566      4565      4567      4567      4565      4568
      4568      4571      4574      4568      4571      4573      4568      4571      4572
      4569      4568      4565      4569      4568      4571      4569      4568      4570
      4570      4568      4565      4570      4568      4571      4571      4568      4565
      4572      4571      4574      4572      4571      4573      4573      4571      4574
      4574      4577      4580      4574      4577      4579      4574      4577      4578
      4575      4574      4571      4575      4574      4577      4575      4574      4576
      4576      4574      4571      4576      4574      4577      4577      4574      4571
      4578      4577      4580      4578      4577      4579      4579      4577      4580
      4580      4583      4586      4580      4583      4585      4580      4583      4584
      4581      4580      4577      4581      4580      4583      4581      4580      4582
      4582      4580      4577      4582      4580      4583      4583      4580      4577
      4584      4583      4586      4584      4583      4585      4585      4583      4586
      4586      4589      4592      4586      4589      4591      4586      4589      4590
      4587      4586      4583      4587      4586      4589      4587      4586      4588
      4588      4586      4583      4588      4586      4589      4589      4586      4583
      4590      4589      4592      4590      4589      4591      4591      4589      4592
      4592      4595      4598      4592      4595      4597      4592      4595      4596
      4593      4592      4589      4593      4592      4595      4593      4592      4594
      4594      4592      4589      4594      4592      4595      4595      4592      4589
      4596      4595      4598      4596      4595      4597      4597      4595      4598
      4598      4601      4604      4598      4601      4603      4598      4601      4602
      4599      4598      4595      4599      4598      4601      4599      4598      4600
      4600      4598      4595      4600      4598      4601      4601      4598      4595
      4602      4601      4604      4602      4601      4603      4603      4601      4604
      4604      4607      4610      4604      4607      4609      4604      4607      4608
      4605      4604      4601      4605      4604      4607      4605      4604      4606
      4606      4604      4601      4606      4604      4607      4607      4604      4601
      4608      4607      4610      4608      4607      4609      4609      4607      4610
      4610      4613      4616      4610      4613      4615      4610      4613      4614
      4611      4610      4607      4611      4610      4613      4611      4610      4612
      4612      4610      4607      4612      4610      4613      4613      4610      4607
      4614      4613      4616      4614      4613      4615      4615      4613      4616
      4616      4619      4622      4616      4619      4621      4616      4619      4620
      4617      4616      4613      4617      4616      4619      4617      4616      4618
      4618      4616      4613      4618      4616      4619      4619      4616      4613
      4620      4619      4622      4620      4619      4621      4621      4619      4622
      4622      4625      4628      4622      4625      4627      4622      4625      4626
      4623      4622      4619      4623      4622      4625      4623      4622      4624
      4624      4622      4619      4624      4622      4625      4625      4622      4619
      4626      4625      4628      4626      4625      4627      4627      4625      4628
      4628      4631      4634      4628      4631      4633      4628      4631      4632
      4629      4628      4625      4629      4628      4631      4629      4628      4630
      4630      4628      4625      4630      4628      4631      4631      4628      4625
      4632      4631      4634      4632      4631      4633      4633      4631      4634
      4634      4637      4640      4634      4637      4639      4634      4637      4638
      4635      4634      4631      4635      4634      4637      4635      4634      4636
      4636      4634      4631      4636      4634      4637      4637      4634      4631
      4638      4637      4640      4638      4637      4639      4639      4637      4640
      4640      4643      4646      4640      4643      4645      4640      4643      4644
      4641      4640      4637      4641      4640      4643      4641      4640      4642
      4642      4640      4637      4642      4640      4643      4643      4640      4637
      4644      4643      4646      4644      4643      4645      4645      4643      4646
      4646      4649      4652      4646      4649      4651      4646      4649      4650
      4647      4646      4643      4647      4646      4649      4647      4646      4648
      4648      4646      4643      4648      4646      4649      4649      4646      4643
      4650      4649      4652      4650      4649      4651      4651      4649      4652
      4652      4655      4658      4652      4655      4657      4652      4655      4656
      4653      4652      4649      4653      4652      4655      4653      4652      4654
      4654      4652      4649      4654      4652      4655      4655      4652      4649
      4656      4655      4658      4656      4655      4657      4657      4655      4658
      4658      4661      4664      4658      4661      4663      4658      4661      4662
      4659      4658      4655      4659      4658      4661      4659      4658      4660
      4660      4658      4655      4660      4658      4661      4661      4658      4655
      4662      4661      4664      4662      4661      4663      4663      4661      4664
      4664      4667      4670      4664      4667      4669      4664      4667      4668
      4665      4664      4661      4665      4664      4667      4665      4664      4666
      4666      4664      4661      4666      4664      4667      4667      4664      4661
      4668      4667      4670      4668      4667      4669      4669      4667      4670
      4670      4673      4676      4670      4673      4675      4670      4673      4674
      4671      4670      4667      4671      4670      4673      4671      4670      4672
      4672      4670      4667      4672      4670      4673      4673      4670      4667
      4674      4673      4676      4674      4673      4675      4675      4673      4676
      4676      4679      4682      4676      4679      4681      4676      4679      4680
      4677      4676      4673      4677      4676      4679      4677      4676      4678
      4678      4676      4673      4678      4676      4679      4679      4676      4673
      4680      4679      4682      4680      4679      4681      4681      4679      4682
      4682      4685      4688      4682      4685      4687      4682      4685      4686
      4683      4682      4679      4683      4682      4685      4683      4682      4684
      4684      4682      4679      4684      4682      4685      4685      4682      4679
      4686      4685      4688      4686      4685      4687      4687      4685      4688
      4688      4691      4694      4688      4691      4693      4688      4691      4692
      4689      4688      4685      4689      4688      4691      4689      4688      4690
      4690      4688      4685      4690      4688      4691      4691      4688      4685
      4692      4691      4694      4692      4691      4693      4693      4691      4694
      4694      4697      4700      4694      4697      4699      4694      4697      4698
      4695      4694      4691      4695      4694      4697      4695      4694      4696
      4696      4694      4691      4696      4694      4697      4697      4694      4691
      4698      4697      4700      4698      4697      4699      4699      4697      4700
      4700      4703      4706      4700      4703      4705      4701      4700      4697
      4701      4700      4703      4701      4700      4702      4702      4700      4697
      4702      4700      4703      4703      4700      4697      4704      4703      4706
      4704      4703      4705      4704      4703      4700      4705      4703      4706
      4707      4711      4714      4707      4711      4713      4707      4711      4712
      4708      4707      4711      4708      4707      4710      4709      4707      4711
      4709      4707      4710      4709      4707      4708      4710      4707      4711
      4712      4711      4714      4712      4711      4713      4713      4711      4714
      4714      4717      4720      4714      4717      4719      4714      4717      4718
      4715      4714      4711      4715      4714      4717      4715      4714      4716
      4716      4714      4711      4716      4714      4717      4717      4714      4711
      4718      4717      4720      4718      4717      4719      4719      4717      4720
      4720      4723      4726      4720      4723      4725      4720      4723      4724
      4721      4720      4717      4721      4720      4723      4721      4720      4722
      4722      4720      4717      4722      4720      4723      4723      4720      4717
      4724      4723      4726      4724      4723      4725      4725      4723      4726
      4726      4729      4732      4726      4729      4731      4726      4729      4730
      4727      4726      4723      4727      4726      4729      4727      4726      4728
      4728      4726      4723      4728      4726      4729      4729      4726      4723
      4730      4729      4732      4730      4729      4731      4731      4729      4732
      4732      4735      4738      4732      4735      4737      4732      4735      4736
      4733      4732      4729      4733      4732      4735      4733      4732      4734
      4734      4732      4729      4734      4732      4735      4735      4732      4729
      4736      4735      4738      4736      4735      4737      4737      4735      4738
      4738      4741      4744      4738      4741      4743      4738      4741      4742
      4739      4738      4735      4739      4738      4741      4739      4738      4740
      4740      4738      4735      4740      4738      4741      4741      4738      4735
      4742      4741      4744      4742      4741      4743      4743      4741      4744
      4744      4747      4750      4744      4747      4749      4744      4747      4748
      4745      4744      4741      4745      4744      4747      4745      4744      4746
      4746      4744      4741      4746      4744      4747      4747      4744      4741
      4748      4747      4750      4748      4747      4749      4749      4747      4750
      4750      4753      4756      4750      4753      4755      4750      4753      4754
      4751      4750      4747      4751      4750      4753      4751      4750      4752
      4752      4750      4747      4752      4750      4753      4753      4750      4747
      4754      4753      4756      4754      4753      4755      4755      4753      4756
      4756      4759      4762      4756      4759      4761      4756      4759      4760
      4757      4756      4753      4757      4756      4759      4757      4756      4758
      4758      4756      4753      4758      4756      4759      4759      4756      4753
      4760      4759      4762      4760      4759      4761      4761      4759      4762
      4762      4765      4768      4762      4765      4767      4762      4765      4766
      4763      4762      4759      4763      4762      4765      4763      4762      4764
      4764      4762      4759      4764      4762      4765      4765      4762      4759
      4766      4765      4768      4766      4765      4767      4767      4765      4768
      4768      4771      4774      4768      4771      4773      4768      4771      4772
      4769      4768      4765      4769      4768      4771      4769      4768      4770
      4770      4768      4765      4770      4768      4771      4771      4768      4765
      4772      4771      4774      4772      4771      4773      4773      4771      4774
      4774      4777      4780      4774      4777      4779      4774      4777      4778
      4775      4774      4771      4775      4774      4777      4775      4774      4776
      4776      4774      4771      4776      4774      4777      4777      4774      4771
      4778      4777      4780      4778      4777      4779      4779      4777      4780
      4780      4783      4786      4780      4783      4785      4780      4783      4784
      4781      4780      4777      4781      4780      4783      4781      4780      4782
      4782      4780      4777      4782      4780      4783      4783      4780      4777
      4784      4783      4786      4784      4783      4785      4785      4783      4786
      4786      4789      4792      4786      4789      4791      4786      4789      4790
      4787      4786      4783      4787      4786      4789      4787      4786      4788
      4788      4786      4783      4788      4786      4789      4789      4786      4783
      4790      4789      4792      4790      4789      4791      4791      4789      4792
      4792      4795      4798      4792      4795      4797      4792      4795      4796
      4793      4792      4789      4793      4792      4795      4793      4792      4794
      4794      4792      4789      4794      4792      4795      4795      4792      4789
      4796      4795      4798      4796      4795      4797      4797      4795      4798
      4798      4801      4804      4798      4801      4803      4798      4801      4802
      4799      4798      4795      4799      4798      4801      4799      4798      4800
      4800      4798      4795      4800      4798      4801      4801      4798      4795
      4802      4801      4804      4802      4801      4803      4803      4801      4804
      4804      4807      4810      4804      4807      4809      4804      4807      4808
      4805      4804      4801      4805      4804      4807      4805      4804      4806
      4806      4804      4801      4806      4804      4807      4807      4804      4801
      4808      4807      4810      4808      4807      4809      4809      4807      4810
      4810      4813      4816      4810      4813      4815      4810      4813      4814
      4811      4810      4807      4811      4810      4813      4811      4810      4812
      4812      4810      4807      4812      4810      4813      4813      4810      4807
      4814      4813      4816      4814      4813      4815      4815      4813      4816
      4816      4819      4822      4816      4819      4821      4816      4819      4820
      4817      4816      4813      4817      4816      4819      4817      4816      4818
      4818      4816      4813      4818      4816      4819      4819      4816      4813
      4820      4819      4822      4820      4819      4821      4821      4819      4822
      4822      4825      4828      4822      4825      4827      4822      4825      4826
      4823      4822      4819      4823      4822      4825      4823      4822      4824
      4824      4822      4819      4824      4822      4825      4825      4822      4819
      4826      4825      4828      4826      4825      4827      4827      4825      4828
      4828      4831      4834      4828      4831      4833      4828      4831      4832
      4829      4828      4825      4829      4828      4831      4829      4828      4830
      4830      4828      4825      4830      4828      4831      4831      4828      4825
      4832      4831      4834      4832      4831      4833      4833      4831      4834
      4834      4837      4840      4834      4837      4839      4834      4837      4838
      4835      4834      4831      4835      4834      4837      4835      4834      4836
      4836      4834      4831      4836      4834      4837      4837      4834      4831
      4838      4837      4840      4838      4837      4839      4839      4837      4840
      4840      4843      4846      4840      4843      4845      4840      4843      4844
      4841      4840      4837      4841      4840      4843      4841      4840      4842
      4842      4840      4837      4842      4840      4843      4843      4840      4837
      4844      4843      4846      4844      4843      4845      4845      4843      4846
      4846      4849      4852      4846      4849      4851      4846      4849      4850
      4847      4846      4843      4847      4846      4849      4847      4846      4848
      4848      4846      4843      4848      4846      4849      4849      4846      4843
      4850      4849      4852      4850      4849      4851      4851      4849      4852
      4852      4855      4858      4852      4855      4857      4852      4855      4856
      4853      4852      4849      4853      4852      4855      4853      4852      4854
      4854      4852      4849      4854      4852      4855      4855      4852      4849
      4856      4855      4858      4856      4855      4857      4857      4855      4858
      4858      4861      4864      4858      4861      4863      4858      4861      4862
      4859      4858      4855      4859      4858      4861      4859      4858      4860
      4860      4858      4855      4860      4858      4861      4861      4858      4855
      4862      4861      4864      4862      4861      4863      4863      4861      4864
      4864      4867      4870      4864      4867      4869      4864      4867      4868
      4865      4864      4861      4865      4864      4867      4865      4864      4866
      4866      4864      4861      4866      4864      4867      4867      4864      4861
      4868      4867      4870      4868      4867      4869      4869      4867      4870
      4870      4873      4876      4870      4873      4875      4870      4873      4874
      4871      4870      4867      4871      4870      4873      4871      4870      4872
      4872      4870      4867      4872      4870      4873      4873      4870      4867
      4874      4873      4876      4874      4873      4875      4875      4873      4876
      4876      4879      4882      4876      4879      4881      4876      4879      4880
      4877      4876      4873      4877      4876      4879      4877      4876      4878
      4878      4876      4873      4878      4876      4879      4879      4876      4873
      4880      4879      4882      4880      4879      4881      4881      4879      4882
      4882      4885      4888      4882      4885      4887      4882      4885      4886
      4883      4882      4879      4883      4882      4885      4883      4882      4884
      4884      4882      4879      4884      4882      4885      4885      4882      4879
      4886      4885      4888      4886      4885      4887      4887      4885      4888
      4888      4891      4894      4888      4891      4893      4888      4891      4892
      4889      4888      4885      4889      4888      4891      4889      4888      4890
      4890      4888      4885      4890      4888      4891      4891      4888      4885
      4892      4891      4894      4892      4891      4893      4893      4891      4894
      4894      4897      4900      4894      4897      4899      4894      4897      4898
      4895      4894      4891      4895      4894      4897      4895      4894      4896
      4896      4894      4891      4896      4894      4897      4897      4894      4891
      4898      4897      4900      4898      4897      4899      4899      4897      4900
      4900      4903      4906      4900      4903      4905      4900      4903      4904
      4901      4900      4897      4901      4900      4903      4901      4900      4902
      4902      4900      4897      4902      4900      4903      4903      4900      4897
      4904      4903      4906      4904      4903      4905      4905      4903      4906
      4906      4909      4912      4906      4909      4911      4906      4909      4910
      4907      4906      4903      4907      4906      4909      4907      4906      4908
      4908      4906      4903      4908      4906      4909      4909      4906      4903
      4910      4909      4912      4910      4909      4911      4911      4909      4912
      4912      4915      4918      4912      4915      4917      4912      4915      4916
      4913      4912      4909      4913      4912      4915      4913      4912      4914
      4914      4912      4909      4914      4912      4915      4915      4912      4909
      4916      4915      4918      4916      4915      4917      4917      4915      4918
      4918      4921      4924      4918      4921      4923      4918      4921      4922
      4919      4918      4915      4919      4918      4921      4919      4918      4920
      4920      4918      4915      4920      4918      4921      4921      4918      4915
      4922      4921      4924      4922      4921      4923      4923      4921      4924
      4924      4927      4930      4924      4927      4929      4924      4927      4928
      4925      4924      4921      4925      4924      4927      4925      4924      4926
      4926      4924      4921      4926      4924      4927      4927      4924      4921
      4928      4927      4930      4928      4927      4929      4929      4927      4930
      4930      4933      4936      4930      4933      4935      4930      4933      4934
      4931      4930      4927      4931      4930      4933      4931      4930      4932
      4932      4930      4927      4932      4930      4933      4933      4930      4927
      4934      4933      4936      4934      4933      4935      4935      4933      4936
      4936      4939      4942      4936      4939      4941      4936      4939      4940
      4937      4936      4933      4937      4936      4939      4937      4936      4938
      4938      4936      4933      4938      4936      4939      4939      4936      4933
      4940      4939      4942      4940      4939      4941      4941      4939      4942
      4942      4945      4948      4942      4945      4947      4942      4945      4946
      4943      4942      4939      4943      4942      4945      4943      4942      4944
      4944      4942      4939      4944      4942      4945      4945      4942      4939
      4946      4945      4948      4946      4945      4947      4947      4945      4948
      4948      4951      4954      4948      4951      4953      4948      4951      4952
      4949      4948      4945      4949      4948      4951      4949      4948      4950
      4950      4948      4945      4950      4948      4951      4951      4948      4945
      4952      4951      4954      4952      4951      4953      4953      4951      4954
      4954      4957      4960      4954      4957      4959      4954      4957      4958
      4955      4954      4951      4955      4954      4957      4955      4954      4956
      4956      4954      4951      4956      4954      4957      4957      4954      4951
      4958      4957      4960      4958      4957      4959      4959      4957      4960
      4960      4963      4966      4960      4963      4965      4960      4963      4964
      4961      4960      4957      4961      4960      4963      4961      4960      4962
      4962      4960      4957      4962      4960      4963      4963      4960      4957
      4964      4963      4966      4964      4963      4965      4965      4963      4966
      4966      4969      4972      4966      4969      4971      4966      4969      4970
      4967      4966      4963      4967      4966      4969      4967      4966      4968
      4968      4966      4963      4968      4966      4969      4969      4966      4963
      4970      4969      4972      4970      4969      4971      4971      4969      4972
      4972      4975      4978      4972      4975      4977      4972      4975      4976
      4973      4972      4969      4973      4972      4975      4973      4972      4974
      4974      4972      4969      4974      4972      4975      4975      4972      4969
      4976      4975      4978      4976      4975      4977      4977      4975      4978
      4978      4981      4984      4978      4981      4983      4978      4981      4982
      4979      4978      4975      4979      4978      4981      4979      4978      4980
      4980      4978      4975      4980      4978      4981      4981      4978      4975
      4982      4981      4984      4982      4981      4983      4983      4981      4984
      4984      4987      4990      4984      4987      4989      4984      4987      4988
      4985      4984      4981      4985      4984      4987      4985      4984      4986
      4986      4984      4981      4986      4984      4987      4987      4984      4981
      4988      4987      4990      4988      4987      4989      4989      4987      4990
      4990      4993      4996      4990      4993      4995      4990      4993      4994
      4991      4990      4987      4991      4990      4993      4991      4990      4992
      4992      4990      4987      4992      4990      4993      4993      4990      4987
      4994      4993      4996      4994      4993      4995      4995      4993      4996
      4996      4999      5002      4996      4999      5001      4996      4999      5000
      4997      4996      4993      4997      4996      4999      4997      4996      4998
      4998      4996      4993      4998      4996      4999      4999      4996      4993
      5000      4999      5002      5000      4999      5001      5001      4999      5002
      5002      5005      5008      5002      5005      5007      5002      5005      5006
      5003      5002      4999      5003      5002      5005      5003      5002      5004
      5004      5002      4999      5004      5002      5005      5005      5002      4999
      5006      5005      5008      5006      5005      5007      5007      5005      5008
      5008      5011      5014      5008      5011      5013      5008      5011      5012
      5009      5008      5005      5009      5008      5011      5009      5008      5010
      5010      5008      5005      5010      5008      5011      5011      5008      5005
      5012      5011      5014      5012      5011      5013      5013      5011      5014
      5014      5017      5020      5014      5017      5019      5014      5017      5018
      5015      5014      5011      5015      5014      5017      5015      5014      5016
      5016      5014      5011      5016      5014      5017      5017      5014      5011
      5018      5017      5020      5018      5017      5019      5019      5017      5020
      5020      5023      5026      5020      5023      5025      5020      5023      5024
      5021      5020      5017      5021      5020      5023      5021      5020      5022
      5022      5020      5017      5022      5020      5023      5023      5020      5017
      5024      5023      5026      5024      5023      5025      5025      5023      5026
      5026      5029      5032      5026      5029      5031      5026      5029      5030
      5027      5026      5023      5027      5026      5029      5027      5026      5028
      5028      5026      5023      5028      5026      5029      5029      5026      5023
      5030      5029      5032      5030      5029      5031      5031      5029      5032
      5032      5035      5038      5032      5035      5037      5032      5035      5036
      5033      5032      5029      5033      5032      5035      5033      5032      5034
      5034      5032      5029      5034      5032      5035      5035      5032      5029
      5036      5035      5038      5036      5035      5037      5037      5035      5038
      5038      5041      5044      5038      5041      5043      5038      5041      5042
      5039      5038      5035      5039      5038      5041      5039      5038      5040
      5040      5038      5035      5040      5038      5041      5041      5038      5035
      5042      5041      5044      5042      5041      5043      5043      5041      5044
      5044      5047      5050      5044      5047      5049      5044      5047      5048
      5045      5044      5041      5045      5044      5047      5045      5044      5046
      5046      5044      5041      5046      5044      5047      5047      5044      5041
      5048      5047      5050      5048      5047      5049      5049      5047      5050
      5050      5053      5056      5050      5053      5055      5050      5053      5054
      5051      5050      5047      5051      5050      5053      5051      5050      5052
      5052      5050      5047      5052      5050      5053      5053      5050      5047
      5054      5053      5056      5054      5053      5055      5055      5053      5056
      5056      5059      5062      5056      5059      5061      5056      5059      5060
      5057      5056      5053      5057      5056      5059      5057      5056      5058
      5058      5056      5053      5058      5056      5059      5059      5056      5053
      5060      5059      5062      5060      5059      5061      5061      5059      5062
      5062      5065      5068      5062      5065      5067      5063      5062      5059
      5063      5062      5065      5063      5062      5064      5064      5062      5059
      5064      5062      5065      5065      5062      5059      5066      5065      5068
      5066      5065      5067      5066      5065      5062      5067      5065      5068
      5069      5073      5076      5069      5073      5075      5069      5073      5074
      5070      5069      5073      5070      5069      5072      5071      5069      5073
      5071      5069      5072      5071      5069      5070      5072      5069      5073
      5074      5073      5076      5074      5073      5075      5075      5073      5076
      5076      5079      5082      5076      5079      5081      5076      5079      5080
      5077      5076      5073      5077      5076      5079      5077      5076      5078
      5078      5076      5073      5078      5076      5079      5079      5076      5073
      5080      5079      5082      5080      5079      5081      5081      5079      5082
      5082      5085      5088      5082      5085      5087      5082      5085      5086
      5083      5082      5079      5083      5082      5085      5083      5082      5084
      5084      5082      5079      5084      5082      5085      5085      5082      5079
      5086      5085      5088      5086      5085      5087      5087      5085      5088
      5088      5091      5094      5088      5091      5093      5088      5091      5092
      5089      5088      5085      5089      5088      5091      5089      5088      5090
      5090      5088      5085      5090      5088      5091      5091      5088      5085
      5092      5091      5094      5092      5091      5093      5093      5091      5094
      5094      5097      5100      5094      5097      5099      5094      5097      5098
      5095      5094      5091      5095      5094      5097      5095      5094      5096
      5096      5094      5091      5096      5094      5097      5097      5094      5091
      5098      5097      5100      5098      5097      5099      5099      5097      5100
      5100      5103      5106      5100      5103      5105      5100      5103      5104
      5101      5100      5097      5101      5100      5103      5101      5100      5102
      5102      5100      5097      5102      5100      5103      5103      5100      5097
      5104      5103      5106      5104      5103      5105      5105      5103      5106
      5106      5109      5112      5106      5109      5111      5106      5109      5110
      5107      5106      5103      5107      5106      5109      5107      5106      5108
      5108      5106      5103      5108      5106      5109      5109      5106      5103
      5110      5109      5112      5110      5109      5111      5111      5109      5112
      5112      5115      5118      5112      5115      5117      5112      5115      5116
      5113      5112      5109      5113      5112      5115      5113      5112      5114
      5114      5112      5109      5114      5112      5115      5115      5112      5109
      5116      5115      5118      5116      5115      5117      5117      5115      5118
      5118      5121      5124      5118      5121      5123      5118      5121      5122
      5119      5118      5115      5119      5118      5121      5119      5118      5120
      5120      5118      5115      5120      5118      5121      5121      5118      5115
      5122      5121      5124      5122      5121      5123      5123      5121      5124
      5124      5127      5130      5124      5127      5129      5124      5127      5128
      5125      5124      5121      5125      5124      5127      5125      5124      5126
      5126      5124      5121      5126      5124      5127      5127      5124      5121
      5128      5127      5130      5128      5127      5129      5129      5127      5130
      5130      5133      5136      5130      5133      5135      5130      5133      5134
      5131      5130      5127      5131      5130      5133      5131      5130      5132
      5132      5130      5127      5132      5130      5133      5133      5130      5127
      5134      5133      5136      5134      5133      5135      5135      5133      5136
      5136      5139      5142      5136      5139      5141      5136      5139      5140
      5137      5136      5133      5137      5136      5139      5137      5136      5138
      5138      5136      5133      5138      5136      5139      5139      5136      5133
      5140      5139      5142      5140      5139      5141      5141      5139      5142
      5142      5145      5148      5142      5145      5147      5142      5145      5146
      5143      5142      5139      5143      5142      5145      5143      5142      5144
      5144      5142      5139      5144      5142      5145      5145      5142      5139
      5146      5145      5148      5146      5145      5147      5147      5145      5148
      5148      5151      5154      5148      5151      5153      5148      5151      5152
      5149      5148      5145      5149      5148      5151      5149      5148      5150
      5150      5148      5145      5150      5148      5151      5151      5148      5145
      5152      5151      5154      5152      5151      5153      5153      5151      5154
      5154      5157      5160      5154      5157      5159      5154      5157      5158
      5155      5154      5151      5155      5154      5157      5155      5154      5156
      5156      5154      5151      5156      5154      5157      5157      5154      5151
      5158      5157      5160      5158      5157      5159      5159      5157      5160
      5160      5163      5166      5160      5163      5165      5160      5163      5164
      5161      5160      5157      5161      5160      5163      5161      5160      5162
      5162      5160      5157      5162      5160      5163      5163      5160      5157
      5164      5163      5166      5164      5163      5165      5165      5163      5166
      5166      5169      5172      5166      5169      5171      5166      5169      5170
      5167      5166      5163      5167      5166      5169      5167      5166      5168
      5168      5166      5163      5168      5166      5169      5169      5166      5163
      5170      5169      5172      5170      5169      5171      5171      5169      5172
      5172      5175      5178      5172      5175      5177      5172      5175      5176
      5173      5172      5169      5173      5172      5175      5173      5172      5174
      5174      5172      5169      5174      5172      5175      5175      5172      5169
      5176      5175      5178      5176      5175      5177      5177      5175      5178
      5178      5181      5184      5178      5181      5183      5178      5181      5182
      5179      5178      5175      5179      5178      5181      5179      5178      5180
      5180      5178      5175      5180      5178      5181      5181      5178      5175
      5182      5181      5184      5182      5181      5183      5183      5181      5184
      5184      5187      5190      5184      5187      5189      5184      5187      5188
      5185      5184      5181      5185      5184      5187      5185      5184      5186
      5186      5184      5181      5186      5184      5187      5187      5184      5181
      5188      5187      5190      5188      5187      5189      5189      5187      5190
      5190      5193      5196      5190      5193      5195      5190      5193      5194
      5191      5190      5187      5191      5190      5193      5191      5190      5192
      5192      5190      5187      5192      5190      5193      5193      5190      5187
      5194      5193      5196      5194      5193      5195      5195      5193      5196
      5196      5199      5202      5196      5199      5201      5196      5199      5200
      5197      5196      5193      5197      5196      5199      5197      5196      5198
      5198      5196      5193      5198      5196      5199      5199      5196      5193
      5200      5199      5202      5200      5199      5201      5201      5199      5202
      5202      5205      5208      5202      5205      5207      5202      5205      5206
      5203      5202      5199      5203      5202      5205      5203      5202      5204
      5204      5202      5199      5204      5202      5205      5205      5202      5199
      5206      5205      5208      5206      5205      5207      5207      5205      5208
      5208      5211      5214      5208      5211      5213      5208      5211      5212
      5209      5208      5205      5209      5208      5211      5209      5208      5210
      5210      5208      5205      5210      5208      5211      5211      5208      5205
      5212      5211      5214      5212      5211      5213      5213      5211      5214
      5214      5217      5220      5214      5217      5219      5214      5217      5218
      5215      5214      5211      5215      5214      5217      5215      5214      5216
      5216      5214      5211      5216      5214      5217      5217      5214      5211
      5218      5217      5220      5218      5217      5219      5219      5217      5220
      5220      5223      5226      5220      5223      5225      5220      5223      5224
      5221      5220      5217      5221      5220      5223      5221      5220      5222
      5222      5220      5217      5222      5220      5223      5223      5220      5217
      5224      5223      5226      5224      5223      5225      5225      5223      5226
      5226      5229      5232      5226      5229      5231      5226      5229      5230
      5227      5226      5223      5227      5226      5229      5227      5226      5228
      5228      5226      5223      5228      5226      5229      5229      5226      5223
      5230      5229      5232      5230      5229      5231      5231      5229      5232
      5232      5235      5238      5232      5235      5237      5232      5235      5236
      5233      5232      5229      5233      5232      5235      5233      5232      5234
      5234      5232      5229      5234      5232      5235      5235      5232      5229
      5236      5235      5238      5236      5235      5237      5237      5235      5238
      5238      5241      5244      5238      5241      5243      5238      5241      5242
      5239      5238      5235      5239      5238      5241      5239      5238      5240
      5240      5238      5235      5240      5238      5241      5241      5238      5235
      5242      5241      5244      5242      5241      5243      5243      5241      5244
      5244      5247      5250      5244      5247      5249      5244      5247      5248
      5245      5244      5241      5245      5244      5247      5245      5244      5246
      5246      5244      5241      5246      5244      5247      5247      5244      5241
      5248      5247      5250      5248      5247      5249      5249      5247      5250
      5250      5253      5256      5250      5253      5255      5250      5253      5254
      5251      5250      5247      5251      5250      5253      5251      5250      5252
      5252      5250      5247      5252      5250      5253      5253      5250      5247
      5254      5253      5256      5254      5253      5255      5255      5253      5256
      5256      5259      5262      5256      5259      5261      5256      5259      5260
      5257      5256      5253      5257      5256      5259      5257      5256      5258
      5258      5256      5253      5258      5256      5259      5259      5256      5253
      5260      5259      5262      5260      5259      5261      5261      5259      5262
      5262      5265      5268      5262      5265      5267      5262      5265      5266
      5263      5262      5259      5263      5262      5265      5263      5262      5264
      5264      5262      5259      5264      5262      5265      5265      5262      5259
      5266      5265      5268      5266      5265      5267      5267      5265      5268
      5268      5271      5274      5268      5271      5273      5268      5271      5272
      5269      5268      5265      5269      5268      5271      5269      5268      5270
      5270      5268      5265      5270      5268      5271      5271      5268      5265
      5272      5271      5274      5272      5271      5273      5273      5271      5274
      5274      5277      5280      5274      5277      5279      5274      5277      5278
      5275      5274      5271      5275      5274      5277      5275      5274      5276
      5276      5274      5271      5276      5274      5277      5277      5274      5271
      5278      5277      5280      5278      5277      5279      5279      5277      5280
      5280      5283      5286      5280      5283      5285      5280      5283      5284
      5281      5280      5277      5281      5280      5283      5281      5280      5282
      5282      5280      5277      5282      5280      5283      5283      5280      5277
      5284      5283      5286      5284      5283      5285      5285      5283      5286
      5286      5289      5292      5286      5289      5291      5286      5289      5290
      5287      5286      5283      5287      5286      5289      5287      5286      5288
      5288      5286      5283      5288      5286      5289      5289      5286      5283
      5290      5289      5292      5290      5289      5291      5291      5289      5292
      5292      5295      5298      5292      5295      5297      5292      5295      5296
      5293      5292      5289      5293      5292      5295      5293      5292      5294
      5294      5292      5289      5294      5292      5295      5295      5292      5289
      5296      5295      5298      5296      5295      5297      5297      5295      5298
      5298      5301      5304      5298      5301      5303      5298      5301      5302
      5299      5298      5295      5299      5298      5301      5299      5298      5300
      5300      5298      5295      5300      5298      5301      5301      5298      5295
      5302      5301      5304      5302      5301      5303      5303      5301      5304
      5304      5307      5310      5304      5307      5309      5304      5307      5308
      5305      5304      5301      5305      5304      5307      5305      5304      5306
      5306      5304      5301      5306      5304      5307      5307      5304      5301
      5308      5307      5310      5308      5307      5309      5309      5307      5310
      5310      5313      5316      5310      5313      5315      5310      5313      5314
      5311      5310      5307      5311      5310      5313      5311      5310      5312
      5312      5310      5307      5312      5310      5313      5313      5310      5307
      5314      5313      5316      5314      5313      5315      5315      5313      5316
      5316      5319      5322      5316      5319      5321      5316      5319      5320
      5317      5316      5313      5317      5316      5319      5317      5316      5318
      5318      5316      5313      5318      5316      5319      5319      5316      5313
      5320      5319      5322      5320      5319      5321      5321      5319      5322
      5322      5325      5328      5322      5325      5327      5322      5325      5326
      5323      5322      5319      5323      5322      5325      5323      5322      5324
      5324      5322      5319      5324      5322      5325      5325      5322      5319
      5326      5325      5328      5326      5325      5327      5327      5325      5328
      5328      5331      5334      5328      5331      5333      5328      5331      5332
      5329      5328      5325      5329      5328      5331      5329      5328      5330
      5330      5328      5325      5330      5328      5331      5331      5328      5325
      5332      5331      5334      5332      5331      5333      5333      5331      5334
      5334      5337      5340      5334      5337      5339      5334      5337      5338
      5335      5334      5331      5335      5334      5337      5335      5334      5336
      5336      5334      5331      5336      5334      5337      5337      5334      5331
      5338      5337      5340      5338      5337      5339      5339      5337      5340
      5340      5343      5346      5340      5343      5345      5340      5343      5344
      5341      5340      5337      5341      5340      5343      5341      5340      5342
      5342      5340      5337      5342      5340      5343      5343      5340      5337
      5344      5343      5346      5344      5343      5345      5345      5343      5346
      5346      5349      5352      5346      5349      5351      5346      5349      5350
      5347      5346      5343      5347      5346      5349      5347      5346      5348
      5348      5346      5343      5348      5346      5349      5349      5346      5343
      5350      5349      5352      5350      5349      5351      5351      5349      5352
      5352      5355      5358      5352      5355      5357      5352      5355      5356
      5353      5352      5349      5353      5352      5355      5353      5352      5354
      5354      5352      5349      5354      5352      5355      5355      5352      5349
      5356      5355      5358      5356      5355      5357      5357      5355      5358
      5358      5361      5364      5358      5361      5363      5358      5361      5362
      5359      5358      5355      5359      5358      5361      5359      5358      5360
      5360      5358      5355      5360      5358      5361      5361      5358      5355
      5362      5361      5364      5362      5361      5363      5363      5361      5364
      5364      5367      5370      5364      5367      5369      5364      5367      5368
      5365      5364      5361      5365      5364      5367      5365      5364      5366
      5366      5364      5361      5366      5364      5367      5367      5364      5361
      5368      5367      5370      5368      5367      5369      5369      5367      5370
      5370      5373      5376      5370      5373      5375      5370      5373      5374
      5371      5370      5367      5371      5370      5373      5371      5370      5372
      5372      5370      5367      5372      5370      5373      5373      5370      5367
      5374      5373      5376      5374      5373      5375      5375      5373      5376
      5376      5379      5382      5376      5379      5381      5376      5379      5380
      5377      5376      5373      5377      5376      5379      5377      5376      5378
      5378      5376      5373      5378      5376      5379      5379      5376      5373
      5380      5379      5382      5380      5379      5381      5381      5379      5382
      5382      5385      5388      5382      5385      5387      5382      5385      5386
      5383      5382      5379      5383      5382      5385      5383      5382      5384
      5384      5382      5379      5384      5382      5385      5385      5382      5379
      5386      5385      5388      5386      5385      5387      5387      5385      5388
      5388      5391      5394      5388      5391      5393      5388      5391      5392
      5389      5388      5385      5389      5388      5391      5389      5388      5390
      5390      5388      5385      5390      5388      5391      5391      5388      5385
      5392      5391      5394      5392      5391      5393      5393      5391      5394
      5394      5397      5400      5394      5397      5399      5394      5397      5398
      5395      5394      5391      5395      5394      5397      5395      5394      5396
      5396      5394      5391      5396      5394      5397      5397      5394      5391
      5398      5397      5400      5398      5397      5399      5399      5397      5400
      5400      5403      5406      5400      5403      5405      5400      5403      5404
      5401      5400      5397      5401      5400      5403      5401      5400      5402
      5402      5400      5397      5402      5400      5403      5403      5400      5397
      5404      5403      5406      5404      5403      5405      5405      5403      5406
      5406      5409      5412      5406      5409      5411      5406      5409      5410
      5407      5406      5403      5407      5406      5409      5407      5406      5408
      5408      5406      5403      5408      5406      5409      5409      5406      5403
      5410      5409      5412      5410      5409      5411      5411      5409      5412
      5412      5415      5418      5412      5415      5417      5412      5415      5416
      5413      5412      5409      5413      5412      5415      5413      5412      5414
      5414      5412      5409      5414      5412      5415      5415      5412      5409
      5416      5415      5418      5416      5415      5417      5417      5415      5418
      5418      5421      5424      5418      5421      5423      5418      5421      5422
      5419      5418      5415      5419      5418      5421      5419      5418      5420
      5420      5418      5415      5420      5418      5421      5421      5418      5415
      5422      5421      5424      5422      5421      5423      5423      5421      5424
      5424      5427      5430      5424      5427      5429      5425      5424      5421
      5425      5424      5427      5425      5424      5426      5426      5424      5421
      5426      5424      5427      5427      5424      5421      5428      5427      5430
      5428      5427      5429      5428      5427      5424      5429      5427      5430
      5431      5435      5438      5431      5435      5437      5431      5435      5436
      5432      5431      5435      5432      5431      5434      5433      5431      5435
      5433      5431      5434      5433      5431      5432      5434      5431      5435
      5436      5435      5438      5436      5435      5437      5437      5435      5438
      5438      5441      5444      5438      5441      5443      5438      5441      5442
      5439      5438      5435      5439      5438      5441      5439      5438      5440
      5440      5438      5435      5440      5438      5441      5441      5438      5435
      5442      5441      5444      5442      5441      5443      5443      5441      5444
      5444      5447      5450      5444      5447      5449      5444      5447      5448
      5445      5444      5441      5445      5444      5447      5445      5444      5446
      5446      5444      5441      5446      5444      5447      5447      5444      5441
      5448      5447      5450      5448      5447      5449      5449      5447      5450
      5450      5453      5456      5450      5453      5455      5450      5453      5454
      5451      5450      5447      5451      5450      5453      5451      5450      5452
      5452      5450      5447      5452      5450      5453      5453      5450      5447
      5454      5453      5456      5454      5453      5455      5455      5453      5456
      5456      5459      5462      5456      5459      5461      5456      5459      5460
      5457      5456      5453      5457      5456      5459      5457      5456      5458
      5458      5456      5453      5458      5456      5459      5459      5456      5453
      5460      5459      5462      5460      5459      5461      5461      5459      5462
      5462      5465      5468      5462      5465      5467      5462      5465      5466
      5463      5462      5459      5463      5462      5465      5463      5462      5464
      5464      5462      5459      5464      5462      5465      5465      5462      5459
      5466      5465      5468      5466      5465      5467      5467      5465      5468
      5468      5471      5474      5468      5471      5473      5468      5471      5472
      5469      5468      5465      5469      5468      5471      5469      5468      5470
      5470      5468      5465      5470      5468      5471      5471      5468      5465
      5472      5471      5474      5472      5471      5473      5473      5471      5474
      5474      5477      5480      5474      5477      5479      5474      5477      5478
      5475      5474      5471      5475      5474      5477      5475      5474      5476
      5476      5474      5471      5476      5474      5477      5477      5474      5471
      5478      5477      5480      5478      5477      5479      5479      5477      5480
      5480      5483      5486      5480      5483      5485      5480      5483      5484
      5481      5480      5477      5481      5480      5483      5481      5480      5482
      5482      5480      5477      5482      5480      5483      5483      5480      5477
      5484      5483      5486      5484      5483      5485      5485      5483      5486
      5486      5489      5492      5486      5489      5491      5486      5489      5490
      5487      5486      5483      5487      5486      5489      5487      5486      5488
      5488      5486      5483      5488      5486      5489      5489      5486      5483
      5490      5489      5492      5490      5489      5491      5491      5489      5492
      5492      5495      5498      5492      5495      5497      5492      5495      5496
      5493      5492      5489      5493      5492      5495      5493      5492      5494
      5494      5492      5489      5494      5492      5495      5495      5492      5489
      5496      5495      5498      5496      5495      5497      5497      5495      5498
      5498      5501      5504      5498      5501      5503      5498      5501      5502
      5499      5498      5495      5499      5498      5501      5499      5498      5500
      5500      5498      5495      5500      5498      5501      5501      5498      5495
      5502      5501      5504      5502      5501      5503      5503      5501      5504
      5504      5507      5510      5504      5507      5509      5504      5507      5508
      5505      5504      5501      5505      5504      5507      5505      5504      5506
      5506      5504      5501      5506      5504      5507      5507      5504      5501
      5508      5507      5510      5508      5507      5509      5509      5507      5510
      5510      5513      5516      5510      5513      5515      5510      5513      5514
      5511      5510      5507      5511      5510      5513      5511      5510      5512
      5512      5510      5507      5512      5510      5513      5513      5510      5507
      5514      5513      5516      5514      5513      5515      5515      5513      5516
      5516      5519      5522      5516      5519      5521      5516      5519      5520
      5517      5516      5513      5517      5516      5519      5517      5516      5518
      5518      5516      5513      5518      5516      5519      5519      5516      5513
      5520      5519      5522      5520      5519      5521      5521      5519      5522
      5522      5525      5528      5522      5525      5527      5522      5525      5526
      5523      5522      5519      5523      5522      5525      5523      5522      5524
      5524      5522      5519      5524      5522      5525      5525      5522      5519
      5526      5525      5528      5526      5525      5527      5527      5525      5528
      5528      5531      5534      5528      5531      5533      5528      5531      5532
      5529      5528      5525      5529      5528      5531      5529      5528      5530
      5530      5528      5525      5530      5528      5531      5531      5528      5525
      5532      5531      5534      5532      5531      5533      5533      5531      5534
      5534      5537      5540      5534      5537      5539      5534      5537      5538
      5535      5534      5531      5535      5534      5537      5535      5534      5536
      5536      5534      5531      5536      5534      5537      5537      5534      5531
      5538      5537      5540      5538      5537      5539      5539      5537      5540
      5540      5543      5546      5540      5543      5545      5540      5543      5544
      5541      5540      5537      5541      5540      5543      5541      5540      5542
      5542      5540      5537      5542      5540      5543      5543      5540      5537
      5544      5543      5546      5544      5543      5545      5545      5543      5546
      5546      5549      5552      5546      5549      5551      5546      5549      5550
      5547      5546      5543      5547      5546      5549      5547      5546      5548
      5548      5546      5543      5548      5546      5549      5549      5546      5543
      5550      5549      5552      5550      5549      5551      5551      5549      5552
      5552      5555      5558      5552      5555      5557      5552      5555      5556
      5553      5552      5549      5553      5552      5555      5553      5552      5554
      5554      5552      5549      5554      5552      5555      5555      5552      5549
      5556      5555      5558      5556      5555      5557      5557      5555      5558
      5558      5561      5564      5558      5561      5563      5558      5561      5562
      5559      5558      5555      5559      5558      5561      5559      5558      5560
      5560      5558      5555      5560      5558      5561      5561      5558      5555
      5562      5561      5564      5562      5561      5563      5563      5561      5564
      5564      5567      5570      5564      5567      5569      5564      5567      5568
      5565      5564      5561      5565      5564      5567      5565      5564      5566
      5566      5564      5561      5566      5564      5567      5567      5564      5561
      5568      5567      5570      5568      5567      5569      5569      5567      5570
      5570      5573      5576      5570      5573      5575      5570      5573      5574
      5571      5570      5567      5571      5570      5573      5571      5570      5572
      5572      5570      5567      5572      5570      5573      5573      5570      5567
      5574      5573      5576      5574      5573      5575      5575      5573      5576
      5576      5579      5582      5576      5579      5581      5576      5579      5580
      5577      5576      5573      5577      5576      5579      5577      5576      5578
      5578      5576      5573      5578      5576      5579      5579      5576      5573
      5580      5579      5582      5580      5579      5581      5581      5579      5582
      5582      5585      5588      5582      5585      5587      5582      5585      5586
      5583      5582      5579      5583      5582      5585      5583      5582      5584
      5584      5582      5579      5584      5582      5585      5585      5582      5579
      5586      5585      5588      5586      5585      5587      5587      5585      5588
      5588      5591      5594      5588      5591      5593      5588      5591      5592
      5589      5588      5585      5589      5588      5591      5589      5588      5590
      5590      5588      5585      5590      5588      5591      5591      5588      5585
      5592      5591      5594      5592      5591      5593      5593      5591      5594
      5594      5597      5600      5594      5597      5599      5594      5597      5598
      5595      5594      5591      5595      5594      5597      5595      5594      5596
      5596      5594      5591      5596      5594      5597      5597      5594      5591
      5598      5597      5600      5598      5597      5599      5599      5597      5600
      5600      5603      5606      5600      5603      5605      5600      5603      5604
      5601      5600      5597      5601      5600      5603      5601      5600      5602
      5602      5600      5597      5602      5600      5603      5603      5600      5597
      5604      5603      5606      5604      5603      5605      5605      5603      5606
      5606      5609      5612      5606      5609      5611      5606      5609      5610
      5607      5606      5603      5607      5606      5609      5607      5606      5608
      5608      5606      5603      5608      5606      5609      5609      5606      5603
      5610      5609      5612      5610      5609      5611      5611      5609      5612
      5612      5615      5618      5612      5615      5617      5612      5615      5616
      5613      5612      5609      5613      5612      5615      5613      5612      5614
      5614      5612      5609      5614      5612      5615      5615      5612      5609
      5616      5615      5618      5616      5615      5617      5617      5615      5618
      5618      5621      5624      5618      5621      5623      5618      5621      5622
      5619      5618      5615      5619      5618      5621      5619      5618      5620
      5620      5618      5615      5620      5618      5621      5621      5618      5615
      5622      5621      5624      5622      5621      5623      5623      5621      5624
      5624      5627      5630      5624      5627      5629      5624      5627      5628
      5625      5624      5621      5625      5624      5627      5625      5624      5626
      5626      5624      5621      5626      5624      5627      5627      5624      5621
      5628      5627      5630      5628      5627      5629      5629      5627      5630
      5630      5633      5636      5630      5633      5635      5630      5633      5634
      5631      5630      5627      5631      5630      5633      5631      5630      5632
      5632      5630      5627      5632      5630      5633      5633      5630      5627
      5634      5633      5636      5634      5633      5635      5635      5633      5636
      5636      5639      5642      5636      5639      5641      5636      5639      5640
      5637      5636      5633      5637      5636      5639      5637      5636      5638
      5638      5636      5633      5638      5636      5639      5639      5636      5633
      5640      5639      5642      5640      5639      5641      5641      5639      5642
      5642      5645      5648      5642      5645      5647      5642      5645      5646
      5643      5642      5639      5643      5642      5645      5643      5642      5644
      5644      5642      5639      5644      5642      5645      5645      5642      5639
      5646      5645      5648      5646      5645      5647      5647      5645      5648
      5648      5651      5654      5648      5651      5653      5648      5651      5652
      5649      5648      5645      5649      5648      5651      5649      5648      5650
      5650      5648      5645      5650      5648      5651      5651      5648      5645
      5652      5651      5654      5652      5651      5653      5653      5651      5654
      5654      5657      5660      5654      5657      5659      5654      5657      5658
      5655      5654      5651      5655      5654      5657      5655      5654      5656
      5656      5654      5651      5656      5654      5657      5657      5654      5651
      5658      5657      5660      5658      5657      5659      5659      5657      5660
      5660      5663      5666      5660      5663      5665      5660      5663      5664
      5661      5660      5657      5661      5660      5663      5661      5660      5662
      5662      5660      5657      5662      5660      5663      5663      5660      5657
      5664      5663      5666      5664      5663      5665      5665      5663      5666
      5666      5669      5672      5666      5669      5671      5666      5669      5670
      5667      5666      5663      5667      5666      5669      5667      5666      5668
      5668      5666      5663      5668      5666      5669      5669      5666      5663
      5670      5669      5672      5670      5669      5671      5671      5669      5672
      5672      5675      5678      5672      5675      5677      5672      5675      5676
      5673      5672      5669      5673      5672      5675      5673      5672      5674
      5674      5672      5669      5674      5672      5675      5675      5672      5669
      5676      5675      5678      5676      5675      5677      5677      5675      5678
      5678      5681      5684      5678      5681      5683      5678      5681      5682
      5679      5678      5675      5679      5678      5681      5679      5678      5680
      5680      5678      5675      5680      5678      5681      5681      5678      5675
      5682      5681      5684      5682      5681      5683      5683      5681      5684
      5684      5687      5690      5684      5687      5689      5684      5687      5688
      5685      5684      5681      5685      5684      5687      5685      5684      5686
      5686      5684      5681      5686      5684      5687      5687      5684      5681
      5688      5687      5690      5688      5687      5689      5689      5687      5690
      5690      5693      5696      5690      5693      5695      5690      5693      5694
      5691      5690      5687      5691      5690      5693      5691      5690      5692
      5692      5690      5687      5692      5690      5693      5693      5690      5687
      5694      5693      5696      5694      5693      5695      5695      5693      5696
      5696      5699      5702      5696      5699      5701      5696      5699      5700
      5697      5696      5693      5697      5696      5699      5697      5696      5698
      5698      5696      5693      5698      5696      5699      5699      5696      5693
      5700      5699      5702      5700      5699      5701      5701      5699      5702
      5702      5705      5708      5702      5705      5707      5702      5705      5706
      5703      5702      5699      5703      5702      5705      5703      5702      5704
      5704      5702      5699      5704      5702      5705      5705      5702      5699
      5706      5705      5708      5706      5705      5707      5707      5705      5708
      5708      5711      5714      5708      5711      5713      5708      5711      5712
      5709      5708      5705      5709      5708      5711      5709      5708      5710
      5710      5708      5705      5710      5708      5711      5711      5708      5705
      5712      5711      5714      5712      5711      5713      5713      5711      5714
      5714      5717      5720      5714      5717      5719      5714      5717      5718
      5715      5714      5711      5715      5714      5717      5715      5714      5716
      5716      5714      5711      5716      5714      5717      5717      5714      5711
      5718      5717      5720      5718      5717      5719      5719      5717      5720
      5720      5723      5726      5720      5723      5725      5720      5723      5724
      5721      5720      5717      5721      5720      5723      5721      5720      5722
      5722      5720      5717      5722      5720      5723      5723      5720      5717
      5724      5723      5726      5724      5723      5725      5725      5723      5726
      5726      5729      5732      5726      5729      5731      5726      5729      5730
      5727      5726      5723      5727      5726      5729      5727      5726      5728
      5728      5726      5723      5728      5726      5729      5729      5726      5723
      5730      5729      5732      5730      5729      5731      5731      5729      5732
      5732      5735      5738      5732      5735      5737      5732      5735      5736
      5733      5732      5729      5733      5732      5735      5733      5732      5734
      5734      5732      5729      5734      5732      5735      5735      5732      5729
      5736      5735      5738      5736      5735      5737      5737      5735      5738
      5738      5741      5744      5738      5741      5743      5738      5741      5742
      5739      5738      5735      5739      5738      5741      5739      5738      5740
      5740      5738      5735      5740      5738      5741      5741      5738      5735
      5742      5741      5744      5742      5741      5743      5743      5741      5744
      5744      5747      5750      5744      5747      5749      5744      5747      5748
      5745      5744      5741      5745      5744      5747      5745      5744      5746
      5746      5744      5741      5746      5744      5747      5747      5744      5741
      5748      5747      5750      5748      5747      5749      5749      5747      5750
      5750      5753      5756      5750      5753      5755      5750      5753      5754
      5751      5750      5747      5751      5750      5753      5751      5750      5752
      5752      5750      5747      5752      5750      5753      5753      5750      5747
      5754      5753      5756      5754      5753      5755      5755      5753      5756
      5756      5759      5762      5756      5759      5761      5756      5759      5760
      5757      5756      5753      5757      5756      5759      5757      5756      5758
      5758      5756      5753      5758      5756      5759      5759      5756      5753
      5760      5759      5762      5760      5759      5761      5761      5759      5762
      5762      5765      5768      5762      5765      5767      5762      5765      5766
      5763      5762      5759      5763      5762      5765      5763      5762      5764
      5764      5762      5759      5764      5762      5765      5765      5762      5759
      5766      5765      5768      5766      5765      5767      5767      5765      5768
      5768      5771      5774      5768      5771      5773      5768      5771      5772
      5769      5768      5765      5769      5768      5771      5769      5768      5770
      5770      5768      5765      5770      5768      5771      5771      5768      5765
      5772      5771      5774      5772      5771      5773      5773      5771      5774
      5774      5777      5780      5774      5777      5779      5774      5777      5778
      5775      5774      5771      5775      5774      5777      5775      5774      5776
      5776      5774      5771      5776      5774      5777      5777      5774      5771
      5778      5777      5780      5778      5777      5779      5779      5777      5780
      5780      5783      5786      5780      5783      5785      5780      5783      5784
      5781      5780      5777      5781      5780      5783      5781      5780      5782
      5782      5780      5777      5782      5780      5783      5783      5780      5777
      5784      5783      5786      5784      5783      5785      5785      5783      5786
      5786      5789      5792      5786      5789      5791      5787      5786      5783
      5787      5786      5789      5787      5786      5788      5788      5786      5783
      5788      5786      5789      5789      5786      5783      5790      5789      5792
      5790      5789      5791      5790      5789      5786      5791      5789      5792

   17136 !NPHI: dihedrals
         1         5         8         9         1         5         8        10
         1         5         8        11         2         1         5         6
         2         1         5         7         2         1         5         8
         3         1         5         6         3         1         5         7
         3         1         5         8         4         1         5         6
         4         1         5         7         4         1         5         8
         5         8        11        12         5         8        11        13
         5         8        11        14         6         5         8         9
         6         5         8        10         6         5         8        11
         7         5         8         9         7         5         8        10
         7         5         8        11         8        11        14        15
         8        11        14        16         8        11        14        17
         9         8        11        12         9         8        11        13
         9         8        11        14        10         8        11        12
        10         8        11        13        10         8        11        14
        11        14        17        18        11        14        17        19
        11        14        17        20        12        11        14        15
        12        11        14        16        12        11        14        17
        13        11        14        15        13        11        14        16
        13        11        14        17        14        17        20        21
        14        17        20        22        14        17        20        23
        15        14        17        18        15        14        17        19
        15        14        17        20        16        14        17        18
        16        14        17        19        16        14        17        20
        17        20        23        24        17        20        23        25
        17        20        23        26        18        17        20        21
        18        17        20        22        18        17        20        23
        19        17        20        21        19        17        20        22
        19        17        20        23        20        23        26        27
        20        23        26        28        20        23        26        29
        21        20        23        24        21        20        23        25
        21        20        23        26        22        20        23        24
        22        20        23        25        22        20        23        26
        23        26        29        30        23        26        29        31
        23        26        29        32        24        23        26        27
        24        23        26        28        24        23        26        29
        25        23        26        27        25        23        26        28
        25        23        26        29        26        29        32        33
        26        29        32        34        26        29        32        35
        27        26        29        30        27        26        29        31
        27        26        29        32        28        26        29        30
        28        26        29        31        28        26        29        32
        29        32        35        36        29        32        35        37
        29        32        35        38        30        29        32        33
        30        29        32        34        30        29        32        35
        31        29        32        33        31        29        32        34
        31        29        32        35        32        35        38        39
        32        35        38        40        32        35        38        41
        33        32        35        36        33        32        35        37
        33        32        35        38        34        32        35        36
        34        32        35        37        34        32        35        38
        35        38        41        42        35        38        41        43
        35        38        41        44        36        35        38        39
        36        35        38        40        36        35        38        41
        37        35        38        39        37        35        38        40
        37        35        38        41        38        41        44        45
        38        41        44        46        38        41        44        47
        39        38        41        42        39        38        41        43
        39        38        41        44        40        38        41        42
        40        38        41        43        40        38        41        44
        41        44        47        48        41        44        47        49
        41        44        47        50        42        41        44        45
        42        41        44        46        42        41        44        47
        43        41        44        45        43        41        44        46
        43        41        44        47        44        47        50        51
        44        47        50        52        44        47        50        53
        45        44        47        48        45        44        47        49
        45        44        47        50        46        44        47        48
        46        44        47        49        46        44        47        50
        47        50        53        54        47        50        53        55
        47        50        53        56        48        47        50        51
        48        47        50        52        48        47        50        53
        49        47        50        51        49        47        50        52
        49        47        50        53        50        53        56        57
        50        53        56        58        50        53        56        59
        51        50        53        54        51        50        53        55
        51        50        53        56        52        50        53        54
        52        50        53        55        52        50        53        56
        53        56        59        60        53        56        59        61
        53        56        59        62        54        53        56        57
        54        53        56        58        54        53        56        59
        55        53        56        57        55        53        56        58
        55        53        56        59        56        59        62        63
        56        59        62        64        56        59        62        65
        57        56        59        60        57        56        59        61
        57        56        59        62        58        56        59        60
        58        56        59        61        58        56        59        62
        59        62        65        66        59        62        65        67
        59        62        65        68        60        59        62        63
        60        59        62        64        60        59        62        65
        61        59        62        63        61        59        62        64
        61        59        62        65        62        65        68        69
        62        65        68        70        62        65        68        71
        63        62        65        66        63        62        65        67
        63        62        65        68        64        62        65        66
        64        62        65        67        64        62        65        68
        65        68        71        72        65        68        71        73
        65        68        71        74        66        65        68        69
        66        65        68        70        66        65        68        71
        67        65        68        69        67        65        68        70
        67        65        68        71        68        71        74        75
        68        71        74        76        68        71        74        77
        69        68        71        72        69        68        71        73
        69        68        71        74        70        68        71        72
        70        68        71        73        70        68        71        74
        71        74        77        78        71        74        77        79
        71        74        77        80        72        71        74        75
        72        71        74        76        72        71        74        77
        73        71        74        75        73        71        74        76
        73        71        74        77        74        77        80        81
        74        77        80        82        74        77        80        83
        75        74        77        78        75        74        77        79
        75        74        77        80        76        74        77        78
        76        74        77        79        76        74        77        80
        77        80        83        84        77        80        83        85
        77        80        83        86        78        77        80        81
        78        77        80        82        78        77        80        83
        79        77        80        81        79        77        80        82
        79        77        80        83        80        83        86        87
        80        83        86        88        80        83        86        89
        81        80        83        84        81        80        83        85
        81        80        83        86        82        80        83        84
        82        80        83        85        82        80        83        86
        83        86        89        90        83        86        89        91
        83        86        89        92        84        83        86        87
        84        83        86        88        84        83        86        89
        85        83        86        87        85        83        86        88
        85        83        86        89        86        89        92        93
        86        89        92        94        86        89        92        95
        87        86        89        90        87        86        89        91
        87        86        89        92        88        86        89        90
        88        86        89        91        88        86        89        92
        89        92        95        96        89        92        95        97
        89        92        95        98        90        89        92        93
        90        89        92        94        90        89        92        95
        91        89        92        93        91        89        92        94
        91        89        92        95        92        95        98        99
        92        95        98       100        92        95        98       101
        93        92        95        96        93        92        95        97
        93        92        95        98        94        92        95        96
        94        92        95        97        94        92        95        98
        95        98       101       102        95        98       101       103
        95        98       101       104        96        95        98        99
        96        95        98       100        96        95        98       101
        97        95        98        99        97        95        98       100
        97        95        98       101        98       101       104       105
        98       101       104       106        98       101       104       107
        99        98       101       102        99        98       101       103
        99        98       101       104       100        98       101       102
       100        98       101       103       100        98       101       104
       101       104       107       108       101       104       107       109
       101       104       107       110       102       101       104       105
       102       101       104       106       102       101       104       107
       103       101       104       105       103       101       104       106
       103       101       104       107       104       107       110       111
       104       107       110       112       104       107       110       113
       105       104       107       108       105       104       107       109
       105       104       107       110       106       104       107       108
       106       104       107       109       106       104       107       110
       107       110       113       114       107       110       113       115
       107       110       113       116       108       107       110       111
       108       107       110       112       108       107       110       113
       109       107       110       111       109       107       110       112
       109       107       110       113       110       113       116       117
       110       113       116       118       110       113       116       119
       111       110       113       114       111       110       113       115
       111       110       113       116       112       110       113       114
       112       110       113       115       112       110       113       116
       113       116       119       120       113       116       119       121
       113       116       119       122       114       113       116       117
       114       113       116       118       114       113       116       119
       115       113       116       117       115       113       116       118
       115       113       116       119       116       119       122       123
       116       119       122       124       116       119       122       125
       117       116       119       120       117       116       119       121
       117       116       119       122       118       116       119       120
       118       116       119       121       118       116       119       122
       119       122       125       126       119       122       125       127
       119       122       125       128       120       119       122       123
       120       119       122       124       120       119       122       125
       121       119       122       123       121       119       122       124
       121       119       122       125       122       125       128       129
       122       125       128       130       122       125       128       131
       123       122       125       126       123       122       125       127
       123       122       125       128       124       122       125       126
       124       122       125       127       124       122       125       128
       125       128       131       132       125       128       131       133
       125       128       131       134       126       125       128       129
       126       125       128       130       126       125       128       131
       127       125       128       129       127       125       128       130
       127       125       128       131       128       131       134       135
       128       131       134       136       128       131       134       137
       129       128       131       132       129       128       131       133
       129       128       131       134       130       128       131       132
       130       128       131       133       130       128       131       134
       131       134       137       138       131       134       137       139
       131       134       137       140       132       131       134       135
       132       131       134       136       132       131       134       137
       133       131       134       135       133       131       134       136
       133       131       134       137       134       137       140       141
       134       137       140       142       134       137       140       143
       135       134       137       138       135       134       137       139
       135       134       137       140       136       134       137       138
       136       134       137       139       136       134       137       140
       137       140       143       144       137       140       143       145
       137       140       143       146       138       137       140       141
       138       137       140       142       138       137       140       143
       139       137       140       141       139       137       140       142
       139       137       140       143       140       143       146       147
       140       143       146       148       140       143       146       149
       141       140       143       144       141       140       143       145
       141       140       143       146       142       140       143       144
       142       140       143       145       142       140       143       146
       143       146       149       150       143       146       149       151
       143       146       149       152       144       143       146       147
       144       143       146       148       144       143       146       149
       145       143       146       147       145       143       146       148
       145       143       146       149       146       149       152       153
       146       149       152       154       146       149       152       155
       147       146       149       150       147       146       149       151
       147       146       149       152       148       146       149       150
       148       146       149       151       148       146       149       152
       149       152       155       156       149       152       155       157
       149       152       155       158       150       149       152       153
       150       149       152       154       150       149       152       155
       151       149       152       153       151       149       152       154
       151       149       152       155       152       155       158       159
       152       155       158       160       152       155       158       161
       153       152       155       156       153       152       155       157
       153       152       155       158       154       152       155       156
       154       152       155       157       154       152       155       158
       155       158       161       162       155       158       161       163
       155       158       161       164       156       155       158       159
       156       155       158       160       156       155       158       161
       157       155       158       159       157       155       158       160
       157       155       158       161       158       161       164       165
       158       161       164       166       158       161       164       167
       159       158       161       162       159       158       161       163
       159       158       161       164       160       158       161       162
       160       158       161       163       160       158       161       164
       161       164       167       168       161       164       167       169
       161       164       167       170       162       161       164       165
       162       161       164       166       162       161       164       167
       163       161       164       165       163       161       164       166
       163       161       164       167       164       167       170       171
       164       167       170       172       164       167       170       173
       165       164       167       168       165       164       167       169
       165       164       167       170       166       164       167       168
       166       164       167       169       166       164       167       170
       167       170       173       174       167       170       173       175
       167       170       173       176       168       167       170       171
       168       167       170       172       168       167       170       173
       169       167       170       171       169       167       170       172
       169       167       170       173       170       173       176       177
       170       173       176       178       170       173       176       179
       171       170       173       174       171       170       173       175
       171       170       173       176       172       170       173       174
       172       170       173       175       172       170       173       176
       173       176       179       180       173       176       179       181
       173       176       179       182       174       173       176       177
       174       173       176       178       174       173       176       179
       175       173       176       177       175       173       176       178
       175       173       176       179       176       179       182       183
       176       179       182       184       176       179       182       185
       177       176       179       180       177       176       179       181
       177       176       179       182       178       176       179       180
       178       176       179       181       178       176       179       182
       179       182       185       186       179       182       185       187
       179       182       185       188       180       179       182       183
       180       179       182       184       180       179       182       185
       181       179       182       183       181       179       182       184
       181       179       182       185       182       185       188       189
       182       185       188       190       182       185       188       191
       183       182       185       186       183       182       185       187
       183       182       185       188       184       182       185       186
       184       182       185       187       184       182       185       188
       185       188       191       192       185       188       191       193
       185       188       191       194       186       185       188       189
       186       185       188       190       186       185       188       191
       187       185       188       189       187       185       188       190
       187       185       188       191       188       191       194       195
       188       191       194       196       188       191       194       197
       189       188       191       192       189       188       191       193
       189       188       191       194       190       188       191       192
       190       188       191       193       190       188       191       194
       191       194       197       198       191       194       197       199
       191       194       197       200       192       191       194       195
       192       191       194       196       192       191       194       197
       193       191       194       195       193       191       194       196
       193       191       194       197       194       197       200       201
       194       197       200       202       194       197       200       203
       195       194       197       198       195       194       197       199
       195       194       197       200       196       194       197       198
       196       194       197       199       196       194       197       200
       197       200       203       204       197       200       203       205
       197       200       203       206       198       197       200       201
       198       197       200       202       198       197       200       203
       199       197       200       201       199       197       200       202
       199       197       200       203       200       203       206       207
       200       203       206       208       200       203       206       209
       201       200       203       204       201       200       203       205
       201       200       203       206       202       200       203       204
       202       200       203       205       202       200       203       206
       203       206       209       210       203       206       209       211
       203       206       209       212       204       203       206       207
       204       203       206       208       204       203       206       209
       205       203       206       207       205       203       206       208
       205       203       206       209       206       209       212       213
       206       209       212       214       206       209       212       215
       207       206       209       210       207       206       209       211
       207       206       209       212       208       206       209       210
       208       206       209       211       208       206       209       212
       209       212       215       216       209       212       215       217
       209       212       215       218       210       209       212       213
       210       209       212       214       210       209       212       215
       211       209       212       213       211       209       212       214
       211       209       212       215       212       215       218       219
       212       215       218       220       212       215       218       221
       213       212       215       216       213       212       215       217
       213       212       215       218       214       212       215       216
       214       212       215       217       214       212       215       218
       215       218       221       222       215       218       221       223
       215       218       221       224       216       215       218       219
       216       215       218       220       216       215       218       221
       217       215       218       219       217       215       218       220
       217       215       218       221       218       221       224       225
       218       221       224       226       218       221       224       227
       219       218       221       222       219       218       221       223
       219       218       221       224       220       218       221       222
       220       218       221       223       220       218       221       224
       221       224       227       228       221       224       227       229
       221       224       227       230       222       221       224       225
       222       221       224       226       222       221       224       227
       223       221       224       225       223       221       224       226
       223       221       224       227       224       227       230       231
       224       227       230       232       224       227       230       233
       225       224       227       228       225       224       227       229
       225       224       227       230       226       224       227       228
       226       224       227       229       226       224       227       230
       227       230       233       234       227       230       233       235
       227       230       233       236       228       227       230       231
       228       227       230       232       228       227       230       233
       229       227       230       231       229       227       230       232
       229       227       230       233       230       233       236       237
       230       233       236       238       230       233       236       239
       231       230       233       234       231       230       233       235
       231       230       233       236       232       230       233       234
       232       230       233       235       232       230       233       236
       233       236       239       240       233       236       239       241
       233       236       239       242       234       233       236       237
       234       233       236       238       234       233       236       239
       235       233       236       237       235       233       236       238
       235       233       236       239       236       239       242       243
       236       239       242       244       236       239       242       245
       237       236       239       240       237       236       239       241
       237       236       239       242       238       236       239       240
       238       236       239       241       238       236       239       242
       239       242       245       246       239       242       245       247
       239       242       245       248       240       239       242       243
       240       239       242       244       240       239       242       245
       241       239       242       243       241       239       242       244
       241       239       242       245       242       245       248       249
       242       245       248       250       242       245       248       251
       243       242       245       246       243       242       245       247
       243       242       245       248       244       242       245       246
       244       242       245       247       244       242       245       248
       245       248       251       252       245       248       251       253
       245       248       251       254       246       245       248       249
       246       245       248       250       246       245       248       251
       247       245       248       249       247       245       248       250
       247       245       248       251       248       251       254       255
       248       251       254       256       248       251       254       257
       249       248       251       252       249       248       251       253
       249       248       251       254       250       248       251       252
       250       248       251       253       250       248       251       254
       251       254       257       258       251       254       257       259
       251       254       257       260       252       251       254       255
       252       251       254       256       252       251       254       257
       253       251       254       255       253       251       254       256
       253       251       254       257       254       257       260       261
       254       257       260       262       254       257       260       263
       255       254       257       258       255       254       257       259
       255       254       257       260       256       254       257       258
       256       254       257       259       256       254       257       260
       257       260       263       264       257       260       263       265
       257       260       263       266       258       257       260       261
       258       257       260       262       258       257       260       263
       259       257       260       261       259       257       260       262
       259       257       260       263       260       263       266       267
       260       263       266       268       260       263       266       269
       261       260       263       264       261       260       263       265
       261       260       263       266       262       260       263       264
       262       260       263       265       262       260       263       266
       263       266       269       270       263       266       269       271
       263       266       269       272       264       263       266       267
       264       263       266       268       264       263       266       269
       265       263       266       267       265       263       266       268
       265       263       266       269       266       269       272       273
       266       269       272       274       266       269       272       275
       267       266       269       270       267       266       269       271
       267       266       269       272       268       266       269       270
       268       266       269       271       268       266       269       272
       269       272       275       276       269       272       275       277
       269       272       275       278       270       269       272       273
       270       269       272       274       270       269       272       275
       271       269       272       273       271       269       272       274
       271       269       272       275       272       275       278       279
       272       275       278       280       272       275       278       281
       273       272       275       276       273       272       275       277
       273       272       275       278       274       272       275       276
       274       272       275       277       274       272       275       278
       275       278       281       282       275       278       281       283
       275       278       281       284       276       275       278       279
       276       275       278       280       276       275       278       281
       277       275       278       279       277       275       278       280
       277       275       278       281       278       281       284       285
       278       281       284       286       278       281       284       287
       279       278       281       282       279       278       281       283
       279       278       281       284       280       278       281       282
       280       278       281       283       280       278       281       284
       281       284       287       288       281       284       287       289
       281       284       287       290       282       281       284       285
       282       281       284       286       282       281       284       287
       283       281       284       285       283       281       284       286
       283       281       284       287       284       287       290       291
       284       287       290       292       284       287       290       293
       285       284       287       288       285       284       287       289
       285       284       287       290       286       284       287       288
       286       284       287       289       286       284       287       290
       287       290       293       294       287       290       293       295
       287       290       293       296       288       287       290       291
       288       287       290       292       288       287       290       293
       289       287       290       291       289       287       290       292
       289       287       290       293       290       293       296       297
       290       293       296       298       290       293       296       299
       291       290       293       294       291       290       293       295
       291       290       293       296       292       290       293       294
       292       290       293       295       292       290       293       296
       293       296       299       300       293       296       299       301
       293       296       299       302       294       293       296       297
       294       293       296       298       294       293       296       299
       295       293       296       297       295       293       296       298
       295       293       296       299       296       299       302       303
       296       299       302       304       296       299       302       305
       297       296       299       300       297       296       299       301
       297       296       299       302       298       296       299       300
       298       296       299       301       298       296       299       302
       299       302       305       306       299       302       305       307
       299       302       305       308       300       299       302       303
       300       299       302       304       300       299       302       305
       301       299       302       303       301       299       302       304
       301       299       302       305       302       305       308       309
       302       305       308       310       302       305       308       311
       303       302       305       306       303       302       305       307
       303       302       305       308       304       302       305       306
       304       302       305       307       304       302       305       308
       305       308       311       312       305       308       311       313
       305       308       311       314       306       305       308       309
       306       305       308       310       306       305       308       311
       307       305       308       309       307       305       308       310
       307       305       308       311       308       311       314       315
       308       311       314       316       308       311       314       317
       309       308       311       312       309       308       311       313
       309       308       311       314       310       308       311       312
       310       308       311       313       310       308       311       314
       311       314       317       318       311       314       317       319
       311       314       317       320       312       311       314       315
       312       311       314       316       312       311       314       317
       313       311       314       315       313       311       314       316
       313       311       314       317       314       317       320       321
       314       317       320       322       314       317       320       323
       315       314       317       318       315       314       317       319
       315       314       317       320       316       314       317       318
       316       314       317       319       316       314       317       320
       317       320       323       324       317       320       323       325
       317       320       323       326       318       317       320       321
       318       317       320       322       318       317       320       323
       319       317       320       321       319       317       320       322
       319       317       320       323       320       323       326       327
       320       323       326       328       320       323       326       329
       321       320       323       324       321       320       323       325
       321       320       323       326       322       320       323       324
       322       320       323       325       322       320       323       326
       323       326       329       330       323       326       329       331
       323       326       329       332       324       323       326       327
       324       323       326       328       324       323       326       329
       325       323       326       327       325       323       326       328
       325       323       326       329       326       329       332       333
       326       329       332       334       326       329       332       335
       327       326       329       330       327       326       329       331
       327       326       329       332       328       326       329       330
       328       326       329       331       328       326       329       332
       329       332       335       336       329       332       335       337
       329       332       335       338       330       329       332       333
       330       329       332       334       330       329       332       335
       331       329       332       333       331       329       332       334
       331       329       332       335       332       335       338       339
       332       335       338       340       332       335       338       341
       333       332       335       336       333       332       335       337
       333       332       335       338       334       332       335       336
       334       332       335       337       334       332       335       338
       335       338       341       342       335       338       341       343
       335       338       341       344       336       335       338       339
       336       335       338       340       336       335       338       341
       337       335       338       339       337       335       338       340
       337       335       338       341       338       341       344       345
       338       341       344       346       338       341       344       347
       339       338       341       342       339       338       341       343
       339       338       341       344       340       338       341       342
       340       338       341       343       340       338       341       344
       341       344       347       348       341       344       347       349
       341       344       347       350       342       341       344       345
       342       341       344       346       342       341       344       347
       343       341       344       345       343       341       344       346
       343       341       344       347       344       347       350       351
       344       347       350       352       344       347       350       353
       345       344       347       348       345       344       347       349
       345       344       347       350       346       344       347       348
       346       344       347       349       346       344       347       350
       347       350       353       354       347       350       353       355
       347       350       353       356       348       347       350       351
       348       347       350       352       348       347       350       353
       349       347       350       351       349       347       350       352
       349       347       350       353       350       353       356       357
       350       353       356       358       350       353       356       359
       351       350       353       354       351       350       353       355
       351       350       353       356       352       350       353       354
       352       350       353       355       352       350       353       356
       353       356       359       360       353       356       359       361
       353       356       359       362       354       353       356       357
       354       353       356       358       354       353       356       359
       355       353       356       357       355       353       356       358
       355       353       356       359       357       356       359       360
       357       356       359       361       357       356       359       362
       358       356       359       360       358       356       359       361
       358       356       359       362       363       367       370       371
       363       367       370       372       363       367       370       373
       364       363       367       368       364       363       367       369
       364       363       367       370       365       363       367       368
       365       363       367       369       365       363       367       370
       366       363       367       368       366       363       367       369
       366       363       367       370       367       370       373       374
       367       370       373       375       367       370       373       376
       368       367       370       371       368       367       370       372
       368       367       370       373       369       367       370       371
       369       367       370       372       369       367       370       373
       370       373       376       377       370       373       376       378
       370       373       376       379       371       370       373       374
       371       370       373       375       371       370       373       376
       372       370       373       374       372       370       373       375
       372       370       373       376       373       376       379       380
       373       376       379       381       373       376       379       382
       374       373       376       377       374       373       376       378
       374       373       376       379       375       373       376       377
       375       373       376       378       375       373       376       379
       376       379       382       383       376       379       382       384
       376       379       382       385       377       376       379       380
       377       376       379       381       377       376       379       382
       378       376       379       380       378       376       379       381
       378       376       379       382       379       382       385       386
       379       382       385       387       379       382       385       388
       380       379       382       383       380       379       382       384
       380       379       382       385       381       379       382       383
       381       379       382       384       381       379       382       385
       382       385       388       389       382       385       388       390
       382       385       388       391       383       382       385       386
       383       382       385       387       383       382       385       388
       384       382       385       386       384       382       385       387
       384       382       385       388       385       388       391       392
       385       388       391       393       385       388       391       394
       386       385       388       389       386       385       388       390
       386       385       388       391       387       385       388       389
       387       385       388       390       387       385       388       391
       388       391       394       395       388       391       394       396
       388       391       394       397       389       388       391       392
       389       388       391       393       389       388       391       394
       390       388       391       392       390       388       391       393
       390       388       391       394       391       394       397       398
       391       394       397       399       391       394       397       400
       392       391       394       395       392       391       394       396
       392       391       394       397       393       391       394       395
       393       391       394       396       393       391       394       397
       394       397       400       401       394       397       400       402
       394       397       400       403       395       394       397       398
       395       394       397       399       395       394       397       400
       396       394       397       398       396       394       397       399
       396       394       397       400       397       400       403       404
       397       400       403       405       397       400       403       406
       398       397       400       401       398       397       400       402
       398       397       400       403       399       397       400       401
       399       397       400       402       399       397       400       403
       400       403       406       407       400       403       406       408
       400       403       406       409       401       400       403       404
       401       400       403       405       401       400       403       406
       402       400       403       404       402       400       403       405
       402       400       403       406       403       406       409       410
       403       406       409       411       403       406       409       412
       404       403       406       407       404       403       406       408
       404       403       406       409       405       403       406       407
       405       403       406       408       405       403       406       409
       406       409       412       413       406       409       412       414
       406       409       412       415       407       406       409       410
       407       406       409       411       407       406       409       412
       408       406       409       410       408       406       409       411
       408       406       409       412       409       412       415       416
       409       412       415       417       409       412       415       418
       410       409       412       413       410       409       412       414
       410       409       412       415       411       409       412       413
       411       409       412       414       411       409       412       415
       412       415       418       419       412       415       418       420
       412       415       418       421       413       412       415       416
       413       412       415       417       413       412       415       418
       414       412       415       416       414       412       415       417
       414       412       415       418       415       418       421       422
       415       418       421       423       415       418       421       424
       416       415       418       419       416       415       418       420
       416       415       418       421       417       415       418       419
       417       415       418       420       417       415       418       421
       418       421       424       425       418       421       424       426
       418       421       424       427       419       418       421       422
       419       418       421       423       419       418       421       424
       420       418       421       422       420       418       421       423
       420       418       421       424       421       424       427       428
       421       424       427       429       421       424       427       430
       422       421       424       425       422       421       424       426
       422       421       424       427       423       421       424       425
       423       421       424       426       423       421       424       427
       424       427       430       431       424       427       430       432
       424       427       430       433       425       424       427       428
       425       424       427       429       425       424       427       430
       426       424       427       428       426       424       427       429
       426       424       427       430       427       430       433       434
       427       430       433       435       427       430       433       436
       428       427       430       431       428       427       430       432
       428       427       430       433       429       427       430       431
       429       427       430       432       429       427       430       433
       430       433       436       437       430       433       436       438
       430       433       436       439       431       430       433       434
       431       430       433       435       431       430       433       436
       432       430       433       434       432       430       433       435
       432       430       433       436       433       436       439       440
       433       436       439       441       433       436       439       442
       434       433       436       437       434       433       436       438
       434       433       436       439       435       433       436       437
       435       433       436       438       435       433       436       439
       436       439       442       443       436       439       442       444
       436       439       442       445       437       436       439       440
       437       436       439       441       437       436       439       442
       438       436       439       440       438       436       439       441
       438       436       439       442       439       442       445       446
       439       442       445       447       439       442       445       448
       440       439       442       443       440       439       442       444
       440       439       442       445       441       439       442       443
       441       439       442       444       441       439       442       445
       442       445       448       449       442       445       448       450
       442       445       448       451       443       442       445       446
       443       442       445       447       443       442       445       448
       444       442       445       446       444       442       445       447
       444       442       445       448       445       448       451       452
       445       448       451       453       445       448       451       454
       446       445       448       449       446       445       448       450
       446       445       448       451       447       445       448       449
       447       445       448       450       447       445       448       451
       448       451       454       455       448       451       454       456
       448       451       454       457       449       448       451       452
       449       448       451       453       449       448       451       454
       450       448       451       452       450       448       451       453
       450       448       451       454       451       454       457       458
       451       454       457       459       451       454       457       460
       452       451       454       455       452       451       454       456
       452       451       454       457       453       451       454       455
       453       451       454       456       453       451       454       457
       454       457       460       461       454       457       460       462
       454       457       460       463       455       454       457       458
       455       454       457       459       455       454       457       460
       456       454       457       458       456       454       457       459
       456       454       457       460       457       460       463       464
       457       460       463       465       457       460       463       466
       458       457       460       461       458       457       460       462
       458       457       460       463       459       457       460       461
       459       457       460       462       459       457       460       463
       460       463       466       467       460       463       466       468
       460       463       466       469       461       460       463       464
       461       460       463       465       461       460       463       466
       462       460       463       464       462       460       463       465
       462       460       463       466       463       466       469       470
       463       466       469       471       463       466       469       472
       464       463       466       467       464       463       466       468
       464       463       466       469       465       463       466       467
       465       463       466       468       465       463       466       469
       466       469       472       473       466       469       472       474
       466       469       472       475       467       466       469       470
       467       466       469       471       467       466       469       472
       468       466       469       470       468       466       469       471
       468       466       469       472       469       472       475       476
       469       472       475       477       469       472       475       478
       470       469       472       473       470       469       472       474
       470       469       472       475       471       469       472       473
       471       469       472       474       471       469       472       475
       472       475       478       479       472       475       478       480
       472       475       478       481       473       472       475       476
       473       472       475       477       473       472       475       478
       474       472       475       476       474       472       475       477
       474       472       475       478       475       478       481       482
       475       478       481       483       475       478       481       484
       476       475       478       479       476       475       478       480
       476       475       478       481       477       475       478       479
       477       475       478       480       477       475       478       481
       478       481       484       485       478       481       484       486
       478       481       484       487       479       478       481       482
       479       478       481       483       479       478       481       484
       480       478       481       482       480       478       481       483
       480       478       481       484       481       484       487       488
       481       484       487       489       481       484       487       490
       482       481       484       485       482       481       484       486
       482       481       484       487       483       481       484       485
       483       481       484       486       483       481       484       487
       484       487       490       491       484       487       490       492
       484       487       490       493       485       484       487       488
       485       484       487       489       485       484       487       490
       486       484       487       488       486       484       487       489
       486       484       487       490       487       490       493       494
       487       490       493       495       487       490       493       496
       488       487       490       491       488       487       490       492
       488       487       490       493       489       487       490       491
       489       487       490       492       489       487       490       493
       490       493       496       497       490       493       496       498
       490       493       496       499       491       490       493       494
       491       490       493       495       491       490       493       496
       492       490       493       494       492       490       493       495
       492       490       493       496       493       496       499       500
       493       496       499       501       493       496       499       502
       494       493       496       497       494       493       496       498
       494       493       496       499       495       493       496       497
       495       493       496       498       495       493       496       499
       496       499       502       503       496       499       502       504
       496       499       502       505       497       496       499       500
       497       496       499       501       497       496       499       502
       498       496       499       500       498       496       499       501
       498       496       499       502       499       502       505       506
       499       502       505       507       499       502       505       508
       500       499       502       503       500       499       502       504
       500       499       502       505       501       499       502       503
       501       499       502       504       501       499       502       505
       502       505       508       509       502       505       508       510
       502       505       508       511       503       502       505       506
       503       502       505       507       503       502       505       508
       504       502       505       506       504       502       505       507
       504       502       505       508       505       508       511       512
       505       508       511       513       505       508       511       514
       506       505       508       509       506       505       508       510
       506       505       508       511       507       505       508       509
       507       505       508       510       507       505       508       511
       508       511       514       515       508       511       514       516
       508       511       514       517       509       508       511       512
       509       508       511       513       509       508       511       514
       510       508       511       512       510       508       511       513
       510       508       511       514       511       514       517       518
       511       514       517       519       511       514       517       520
       512       511       514       515       512       511       514       516
       512       511       514       517       513       511       514       515
       513       511       514       516       513       511       514       517
       514       517       520       521       514       517       520       522
       514       517       520       523       515       514       517       518
       515       514       517       519       515       514       517       520
       516       514       517       518       516       514       517       519
       516       514       517       520       517       520       523       524
       517       520       523       525       517       520       523       526
       518       517       520       521       518       517       520       522
       518       517       520       523       519       517       520       521
       519       517       520       522       519       517       520       523
       520       523       526       527       520       523       526       528
       520       523       526       529       521       520       523       524
       521       520       523       525       521       520       523       526
       522       520       523       524       522       520       523       525
       522       520       523       526       523       526       529       530
       523       526       529       531       523       526       529       532
       524       523       526       527       524       523       526       528
       524       523       526       529       525       523       526       527
       525       523       526       528       525       523       526       529
       526       529       532       533       526       529       532       534
       526       529       532       535       527       526       529       530
       527       526       529       531       527       526       529       532
       528       526       529       530       528       526       529       531
       528       526       529       532       529       532       535       536
       529       532       535       537       529       532       535       538
       530       529       532       533       530       529       532       534
       530       529       532       535       531       529       532       533
       531       529       532       534       531       529       532       535
       532       535       538       539       532       535       538       540
       532       535       538       541       533       532       535       536
       533       532       535       537       533       532       535       538
       534       532       535       536       534       532       535       537
       534       532       535       538       535       538       541       542
       535       538       541       543       535       538       541       544
       536       535       538       539       536       535       538       540
       536       535       538       541       537       535       538       539
       537       535       538       540       537       535       538       541
       538       541       544       545       538       541       544       546
       538       541       544       547       539       538       541       542
       539       538       541       543       539       538       541       544
       540       538       541       542       540       538       541       543
       540       538       541       544       541       544       547       548
       541       544       547       549       541       544       547       550
       542       541       544       545       542       541       544       546
       542       541       544       547       543       541       544       545
       543       541       544       546       543       541       544       547
       544       547       550       551       544       547       550       552
       544       547       550       553       545       544       547       548
       545       544       547       549       545       544       547       550
       546       544       547       548       546       544       547       549
       546       544       547       550       547       550       553       554
       547       550       553       555       547       550       553       556
       548       547       550       551       548       547       550       552
       548       547       550       553       549       547       550       551
       549       547       550       552       549       547       550       553
       550       553       556       557       550       553       556       558
       550       553       556       559       551       550       553       554
       551       550       553       555       551       550       553       556
       552       550       553       554       552       550       553       555
       552       550       553       556       553       556       559       560
       553       556       559       561       553       556       559       562
       554       553       556       557       554       553       556       558
       554       553       556       559       555       553       556       557
       555       553       556       558       555       553       556       559
       556       559       562       563       556       559       562       564
       556       559       562       565       557       556       559       560
       557       556       559       561       557       556       559       562
       558       556       559       560       558       556       559       561
       558       556       559       562       559       562       565       566
       559       562       565       567       559       562       565       568
       560       559       562       563       560       559       562       564
       560       559       562       565       561       559       562       563
       561       559       562       564       561       559       562       565
       562       565       568       569       562       565       568       570
       562       565       568       571       563       562       565       566
       563       562       565       567       563       562       565       568
       564       562       565       566       564       562       565       567
       564       562       565       568       565       568       571       572
       565       568       571       573       565       568       571       574
       566       565       568       569       566       565       568       570
       566       565       568       571       567       565       568       569
       567       565       568       570       567       565       568       571
       568       571       574       575       568       571       574       576
       568       571       574       577       569       568       571       572
       569       568       571       573       569       568       571       574
       570       568       571       572       570       568       571       573
       570       568       571       574       571       574       577       578
       571       574       577       579       571       574       577       580
       572       571       574       575       572       571       574       576
       572       571       574       577       573       571       574       575
       573       571       574       576       573       571       574       577
       574       577       580       581       574       577       580       582
       574       577       580       583       575       574       577       578
       575       574       577       579       575       574       577       580
       576       574       577       578       576       574       577       579
       576       574       577       580       577       580       583       584
       577       580       583       585       577       580       583       586
       578       577       580       581       578       577       580       582
       578       577       580       583       579       577       580       581
       579       577       580       582       579       577       580       583
       580       583       586       587       580       583       586       588
       580       583       586       589       581       580       583       584
       581       580       583       585       581       580       583       586
       582       580       583       584       582       580       583       585
       582       580       583       586       583       586       589       590
       583       586       589       591       583       586       589       592
       584       583       586       587       584       583       586       588
       584       583       586       589       585       583       586       587
       585       583       586       588       585       583       586       589
       586       589       592       593       586       589       592       594
       586       589       592       595       587       586       589       590
       587       586       589       591       587       586       589       592
       588       586       589       590       588       586       589       591
       588       586       589       592       589       592       595       596
       589       592       595       597       589       592       595       598
       590       589       592       593       590       589       592       594
       590       589       592       595       591       589       592       593
       591       589       592       594       591       589       592       595
       592       595       598       599       592       595       598       600
       592       595       598       601       593       592       595       596
       593       592       595       597       593       592       595       598
       594       592       595       596       594       592       595       597
       594       592       595       598       595       598       601       602
       595       598       601       603       595       598       601       604
       596       595       598       599       596       595       598       600
       596       595       598       601       597       595       598       599
       597       595       598       600       597       595       598       601
       598       601       604       605       598       601       604       606
       598       601       604       607       599       598       601       602
       599       598       601       603       599       598       601       604
       600       598       601       602       600       598       601       603
       600       598       601       604       601       604       607       608
       601       604       607       609       601       604       607       610
       602       601       604       605       602       601       604       606
       602       601       604       607       603       601       604       605
       603       601       604       606       603       601       604       607
       604       607       610       611       604       607       610       612
       604       607       610       613       605       604       607       608
       605       604       607       609       605       604       607       610
       606       604       607       608       606       604       607       609
       606       604       607       610       607       610       613       614
       607       610       613       615       607       610       613       616
       608       607       610       611       608       607       610       612
       608       607       610       613       609       607       610       611
       609       607       610       612       609       607       610       613
       610       613       616       617       610       613       616       618
       610       613       616       619       611       610       613       614
       611       610       613       615       611       610       613       616
       612       610       613       614       612       610       613       615
       612       610       613       616       613       616       619       620
       613       616       619       621       613       616       619       622
       614       613       616       617       614       613       616       618
       614       613       616       619       615       613       616       617
       615       613       616       618       615       613       616       619
       616       619       622       623       616       619       622       624
       616       619       622       625       617       616       619       620
       617       616       619       621       617       616       619       622
       618       616       619       620       618       616       619       621
       618       616       619       622       619       622       625       626
       619       622       625       627       619       622       625       628
       620       619       622       623       620       619       622       624
       620       619       622       625       621       619       622       623
       621       619       622       624       621       619       622       625
       622       625       628       629       622       625       628       630
       622       625       628       631       623       622       625       626
       623       622       625       627       623       622       625       628
       624       622       625       626       624       622       625       627
       624       622       625       628       625       628       631       632
       625       628       631       633       625       628       631       634
       626       625       628       629       626       625       628       630
       626       625       628       631       627       625       628       629
       627       625       628       630       627       625       628       631
       628       631       634       635       628       631       634       636
       628       631       634       637       629       628       631       632
       629       628       631       633       629       628       631       634
       630       628       631       632       630       628       631       633
       630       628       631       634       631       634       637       638
       631       634       637       639       631       634       637       640
       632       631       634       635       632       631       634       636
       632       631       634       637       633       631       634       635
       633       631       634       636       633       631       634       637
       634       637       640       641       634       637       640       642
       634       637       640       643       635       634       637       638
       635       634       637       639       635       634       637       640
       636       634       637       638       636       634       637       639
       636       634       637       640       637       640       643       644
       637       640       643       645       637       640       643       646
       638       637       640       641       638       637       640       642
       638       637       640       643       639       637       640       641
       639       637       640       642       639       637       640       643
       640       643       646       647       640       643       646       648
       640       643       646       649       641       640       643       644
       641       640       643       645       641       640       643       646
       642       640       643       644       642       640       643       645
       642       640       643       646       643       646       649       650
       643       646       649       651       643       646       649       652
       644       643       646       647       644       643       646       648
       644       643       646       649       645       643       646       647
       645       643       646       648       645       643       646       649
       646       649       652       653       646       649       652       654
       646       649       652       655       647       646       649       650
       647       646       649       651       647       646       649       652
       648       646       649       650       648       646       649       651
       648       646       649       652       649       652       655       656
       649       652       655       657       649       652       655       658
       650       649       652       653       650       649       652       654
       650       649       652       655       651       649       652       653
       651       649       652       654       651       649       652       655
       652       655       658       659       652       655       658       660
       652       655       658       661       653       652       655       656
       653       652       655       657       653       652       655       658
       654       652       655       656       654       652       655       657
       654       652       655       658       655       658       661       662
       655       658       661       663       655       658       661       664
       656       655       658       659       656       655       658       660
       656       655       658       661       657       655       658       659
       657       655       658       660       657       655       658       661
       658       661       664       665       658       661       664       666
       658       661       664       667       659       658       661       662
       659       658       661       663       659       658       661       664
       660       658       661       662       660       658       661       663
       660       658       661       664       661       664       667       668
       661       664       667       669       661       664       667       670
       662       661       664       665       662       661       664       666
       662       661       664       667       663       661       664       665
       663       661       664       666       663       661       664       667
       664       667       670       671       664       667       670       672
       664       667       670       673       665       664       667       668
       665       664       667       669       665       664       667       670
       666       664       667       668       666       664       667       669
       666       664       667       670       667       670       673       674
       667       670       673       675       667       670       673       676
       668       667       670       671       668       667       670       672
       668       667       670       673       669       667       670       671
       669       667       670       672       669       667       670       673
       670       673       676       677       670       673       676       678
       670       673       676       679       671       670       673       674
       671       670       673       675       671       670       673       676
       672       670       673       674       672       670       673       675
       672       670       673       676       673       676       679       680
       673       676       679       681       673       676       679       682
       674       673       676       677       674       673       676       678
       674       673       676       679       675       673       676       677
       675       673       676       678       675       673       676       679
       676       679       682       683       676       679       682       684
       676       679       682       685       677       676       679       680
       677       676       679       681       677       676       679       682
       678       676       679       680       678       676       679       681
       678       676       679       682       679       682       685       686
       679       682       685       687       679       682       685       688
       680       679       682       683       680       679       682       684
       680       679       682       685       681       679       682       683
       681       679       682       684       681       679       682       685
       682       685       688       689       682       685       688       690
       682       685       688       691       683       682       685       686
       683       682       685       687       683       682       685       688
       684       682       685       686       684       682       685       687
       684       682       685       688       685       688       691       692
       685       688       691       693       685       688       691       694
       686       685       688       689       686       685       688       690
       686       685       688       691       687       685       688       689
       687       685       688       690       687       685       688       691
       688       691       694       695       688       691       694       696
       688       691       694       697       689       688       691       692
       689       688       691       693       689       688       691       694
       690       688       691       692       690       688       691       693
       690       688       691       694       691       694       697       698
       691       694       697       699       691       694       697       700
       692       691       694       695       692       691       694       696
       692       691       694       697       693       691       694       695
       693       691       694       696       693       691       694       697
       694       697       700       701       694       697       700       702
       694       697       700       703       695       694       697       698
       695       694       697       699       695       694       697       700
       696       694       697       698       696       694       697       699
       696       694       697       700       697       700       703       704
       697       700       703       705       697       700       703       706
       698       697       700       701       698       697       700       702
       698       697       700       703       699       697       700       701
       699       697       700       702       699       697       700       703
       700       703       706       707       700       703       706       708
       700       703       706       709       701       700       703       704
       701       700       703       705       701       700       703       706
       702       700       703       704       702       700       703       705
       702       700       703       706       703       706       709       710
       703       706       709       711       703       706       709       712
       704       703       706       707       704       703       706       708
       704       703       706       709       705       703       706       707
       705       703       706       708       705       703       706       709
       706       709       712       713       706       709       712       714
       706       709       712       715       707       706       709       710
       707       706       709       711       707       706       709       712
       708       706       709       710       708       706       709       711
       708       706       709       712       709       712       715       716
       709       712       715       717       709       712       715       718
       710       709       712       713       710       709       712       714
       710       709       712       715       711       709       712       713
       711       709       712       714       711       709       712       715
       712       715       718       719       712       715       718       720
       712       715       718       721       713       712       715       716
       713       712       715       717       713       712       715       718
       714       712       715       716       714       712       715       717
       714       712       715       718       715       718       721       722
       715       718       721       723       715       718       721       724
       716       715       718       719       716       715       718       720
       716       715       718       721       717       715       718       719
       717       715       718       720       717       715       718       721
       719       718       721       722       719       718       721       723
       719       718       721       724       720       718       721       722
       720       718       721       723       720       718       721       724
       725       729       732       733       725       729       732       734
       725       729       732       735       726       725       729       730
       726       725       729       731       726       725       729       732
       727       725       729       730       727       725       729       731
       727       725       729       732       728       725       729       730
       728       725       729       731       728       725       729       732
       729       732       735       736       729       732       735       737
       729       732       735       738       730       729       732       733
       730       729       732       734       730       729       732       735
       731       729       732       733       731       729       732       734
       731       729       732       735       732       735       738       739
       732       735       738       740       732       735       738       741
       733       732       735       736       733       732       735       737
       733       732       735       738       734       732       735       736
       734       732       735       737       734       732       735       738
       735       738       741       742       735       738       741       743
       735       738       741       744       736       735       738       739
       736       735       738       740       736       735       738       741
       737       735       738       739       737       735       738       740
       737       735       738       741       738       741       744       745
       738       741       744       746       738       741       744       747
       739       738       741       742       739       738       741       743
       739       738       741       744       740       738       741       742
       740       738       741       743       740       738       741       744
       741       744       747       748       741       744       747       749
       741       744       747       750       742       741       744       745
       742       741       744       746       742       741       744       747
       743       741       744       745       743       741       744       746
       743       741       744       747       744       747       750       751
       744       747       750       752       744       747       750       753
       745       744       747       748       745       744       747       749
       745       744       747       750       746       744       747       748
       746       744       747       749       746       744       747       750
       747       750       753       754       747       750       753       755
       747       750       753       756       748       747       750       751
       748       747       750       752       748       747       750       753
       749       747       750       751       749       747       750       752
       749       747       750       753       750       753       756       757
       750       753       756       758       750       753       756       759
       751       750       753       754       751       750       753       755
       751       750       753       756       752       750       753       754
       752       750       753       755       752       750       753       756
       753       756       759       760       753       756       759       761
       753       756       759       762       754       753       756       757
       754       753       756       758       754       753       756       759
       755       753       756       757       755       753       756       758
       755       753       756       759       756       759       762       763
       756       759       762       764       756       759       762       765
       757       756       759       760       757       756       759       761
       757       756       759       762       758       756       759       760
       758       756       759       761       758       756       759       762
       759       762       765       766       759       762       765       767
       759       762       765       768       760       759       762       763
       760       759       762       764       760       759       762       765
       761       759       762       763       761       759       762       764
       761       759       762       765       762       765       768       769
       762       765       768       770       762       765       768       771
       763       762       765       766       763       762       765       767
       763       762       765       768       764       762       765       766
       764       762       765       767       764       762       765       768
       765       768       771       772       765       768       771       773
       765       768       771       774       766       765       768       769
       766       765       768       770       766       765       768       771
       767       765       768       769       767       765       768       770
       767       765       768       771       768       771       774       775
       768       771       774       776       768       771       774       777
       769       768       771       772       769       768       771       773
       769       768       771       774       770       768       771       772
       770       768       771       773       770       768       771       774
       771       774       777       778       771       774       777       779
       771       774       777       780       772       771       774       775
       772       771       774       776       772       771       774       777
       773       771       774       775       773       771       774       776
       773       771       774       777       774       777       780       781
       774       777       780       782       774       777       780       783
       775       774       777       778       775       774       777       779
       775       774       777       780       776       774       777       778
       776       774       777       779       776       774       777       780
       777       780       783       784       777       780       783       785
       777       780       783       786       778       777       780       781
       778       777       780       782       778       777       780       783
       779       777       780       781       779       777       780       782
       779       777       780       783       780       783       786       787
       780       783       786       788       780       783       786       789
       781       780       783       784       781       780       783       785
       781       780       783       786       782       780       783       784
       782       780       783       785       782       780       783       786
       783       786       789       790       783       786       789       791
       783       786       789       792       784       783       786       787
       784       783       786       788       784       783       786       789
       785       783       786       787       785       783       786       788
       785       783       786       789       786       789       792       793
       786       789       792       794       786       789       792       795
       787       786       789       790       787       786       789       791
       787       786       789       792       788       786       789       790
       788       786       789       791       788       786       789       792
       789       792       795       796       789       792       795       797
       789       792       795       798       790       789       792       793
       790       789       792       794       790       789       792       795
       791       789       792       793       791       789       792       794
       791       789       792       795       792       795       798       799
       792       795       798       800       792       795       798       801
       793       792       795       796       793       792       795       797
       793       792       795       798       794       792       795       796
       794       792       795       797       794       792       795       798
       795       798       801       802       795       798       801       803
       795       798       801       804       796       795       798       799
       796       795       798       800       796       795       798       801
       797       795       798       799       797       795       798       800
       797       795       798       801       798       801       804       805
       798       801       804       806       798       801       804       807
       799       798       801       802       799       798       801       803
       799       798       801       804       800       798       801       802
       800       798       801       803       800       798       801       804
       801       804       807       808       801       804       807       809
       801       804       807       810       802       801       804       805
       802       801       804       806       802       801       804       807
       803       801       804       805       803       801       804       806
       803       801       804       807       804       807       810       811
       804       807       810       812       804       807       810       813
       805       804       807       808       805       804       807       809
       805       804       807       810       806       804       807       808
       806       804       807       809       806       804       807       810
       807       810       813       814       807       810       813       815
       807       810       813       816       808       807       810       811
       808       807       810       812       808       807       810       813
       809       807       810       811       809       807       810       812
       809       807       810       813       810       813       816       817
       810       813       816       818       810       813       816       819
       811       810       813       814       811       810       813       815
       811       810       813       816       812       810       813       814
       812       810       813       815       812       810       813       816
       813       816       819       820       813       816       819       821
       813       816       819       822       814       813       816       817
       814       813       816       818       814       813       816       819
       815       813       816       817       815       813       816       818
       815       813       816       819       816       819       822       823
       816       819       822       824       816       819       822       825
       817       816       819       820       817       816       819       821
       817       816       819       822       818       816       819       820
       818       816       819       821       818       816       819       822
       819       822       825       826       819       822       825       827
       819       822       825       828       820       819       822       823
       820       819       822       824       820       819       822       825
       821       819       822       823       821       819       822       824
       821       819       822       825       822       825       828       829
       822       825       828       830       822       825       828       831
       823       822       825       826       823       822       825       827
       823       822       825       828       824       822       825       826
       824       822       825       827       824       822       825       828
       825       828       831       832       825       828       831       833
       825       828       831       834       826       825       828       829
       826       825       828       830       826       825       828       831
       827       825       828       829       827       825       828       830
       827       825       828       831       828       831       834       835
       828       831       834       836       828       831       834       837
       829       828       831       832       829       828       831       833
       829       828       831       834       830       828       831       832
       830       828       831       833       830       828       831       834
       831       834       837       838       831       834       837       839
       831       834       837       840       832       831       834       835
       832       831       834       836       832       831       834       837
       833       831       834       835       833       831       834       836
       833       831       834       837       834       837       840       841
       834       837       840       842       834       837       840       843
       835       834       837       838       835       834       837       839
       835       834       837       840       836       834       837       838
       836       834       837       839       836       834       837       840
       837       840       843       844       837       840       843       845
       837       840       843       846       838       837       840       841
       838       837       840       842       838       837       840       843
       839       837       840       841       839       837       840       842
       839       837       840       843       840       843       846       847
       840       843       846       848       840       843       846       849
       841       840       843       844       841       840       843       845
       841       840       843       846       842       840       843       844
       842       840       843       845       842       840       843       846
       843       846       849       850       843       846       849       851
       843       846       849       852       844       843       846       847
       844       843       846       848       844       843       846       849
       845       843       846       847       845       843       846       848
       845       843       846       849       846       849       852       853
       846       849       852       854       846       849       852       855
       847       846       849       850       847       846       849       851
       847       846       849       852       848       846       849       850
       848       846       849       851       848       846       849       852
       849       852       855       856       849       852       855       857
       849       852       855       858       850       849       852       853
       850       849       852       854       850       849       852       855
       851       849       852       853       851       849       852       854
       851       849       852       855       852       855       858       859
       852       855       858       860       852       855       858       861
       853       852       855       856       853       852       855       857
       853       852       855       858       854       852       855       856
       854       852       855       857       854       852       855       858
       855       858       861       862       855       858       861       863
       855       858       861       864       856       855       858       859
       856       855       858       860       856       855       858       861
       857       855       858       859       857       855       858       860
       857       855       858       861       858       861       864       865
       858       861       864       866       858       861       864       867
       859       858       861       862       859       858       861       863
       859       858       861       864       860       858       861       862
       860       858       861       863       860       858       861       864
       861       864       867       868       861       864       867       869
       861       864       867       870       862       861       864       865
       862       861       864       866       862       861       864       867
       863       861       864       865       863       861       864       866
       863       861       864       867       864       867       870       871
       864       867       870       872       864       867       870       873
       865       864       867       868       865       864       867       869
       865       864       867       870       866       864       867       868
       866       864       867       869       866       864       867       870
       867       870       873       874       867       870       873       875
       867       870       873       876       868       867       870       871
       868       867       870       872       868       867       870       873
       869       867       870       871       869       867       870       872
       869       867       870       873       870       873       876       877
       870       873       876       878       870       873       876       879
       871       870       873       874       871       870       873       875
       871       870       873       876       872       870       873       874
       872       870       873       875       872       870       873       876
       873       876       879       880       873       876       879       881
       873       876       879       882       874       873       876       877
       874       873       876       878       874       873       876       879
       875       873       876       877       875       873       876       878
       875       873       876       879       876       879       882       883
       876       879       882       884       876       879       882       885
       877       876       879       880       877       876       879       881
       877       876       879       882       878       876       879       880
       878       876       879       881       878       876       879       882
       879       882       885       886       879       882       885       887
       879       882       885       888       880       879       882       883
       880       879       882       884       880       879       882       885
       881       879       882       883       881       879       882       884
       881       879       882       885       882       885       888       889
       882       885       888       890       882       885       888       891
       883       882       885       886       883       882       885       887
       883       882       885       888       884       882       885       886
       884       882       885       887       884       882       885       888
       885       888       891       892       885       888       891       893
       885       888       891       894       886       885       888       889
       886       885       888       890       886       885       888       891
       887       885       888       889       887       885       888       890
       887       885       888       891       888       891       894       895
       888       891       894       896       888       891       894       897
       889       888       891       892       889       888       891       893
       889       888       891       894       890       888       891       892
       890       888       891       893       890       888       891       894
       891       894       897       898       891       894       897       899
       891       894       897       900       892       891       894       895
       892       891       894       896       892       891       894       897
       893       891       894       895       893       891       894       896
       893       891       894       897       894       897       900       901
       894       897       900       902       894       897       900       903
       895       894       897       898       895       894       897       899
       895       894       897       900       896       894       897       898
       896       894       897       899       896       894       897       900
       897       900       903       904       897       900       903       905
       897       900       903       906       898       897       900       901
       898       897       900       902       898       897       900       903
       899       897       900       901       899       897       900       902
       899       897       900       903       900       903       906       907
       900       903       906       908       900       903       906       909
       901       900       903       904       901       900       903       905
       901       900       903       906       902       900       903       904
       902       900       903       905       902       900       903       906
       903       906       909       910       903       906       909       911
       903       906       909       912       904       903       906       907
       904       903       906       908       904       903       906       909
       905       903       906       907       905       903       906       908
       905       903       906       909       906       909       912       913
       906       909       912       914       906       909       912       915
       907       906       909       910       907       906       909       911
       907       906       909       912       908       906       909       910
       908       906       909       911       908       906       909       912
       909       912       915       916       909       912       915       917
       909       912       915       918       910       909       912       913
       910       909       912       914       910       909       912       915
       911       909       912       913       911       909       912       914
       911       909       912       915       912       915       918       919
       912       915       918       920       912       915       918       921
       913       912       915       916       913       912       915       917
       913       912       915       918       914       912       915       916
       914       912       915       917       914       912       915       918
       915       918       921       922       915       918       921       923
       915       918       921       924       916       915       918       919
       916       915       918       920       916       915       918       921
       917       915       918       919       917       915       918       920
       917       915       918       921       918       921       924       925
       918       921       924       926       918       921       924       927
       919       918       921       922       919       918       921       923
       919       918       921       924       920       918       921       922
       920       918       921       923       920       918       921       924
       921       924       927       928       921       924       927       929
       921       924       927       930       922       921       924       925
       922       921       924       926       922       921       924       927
       923       921       924       925       923       921       924       926
       923       921       924       927       924       927       930       931
       924       927       930       932       924       927       930       933
       925       924       927       928       925       924       927       929
       925       924       927       930       926       924       927       928
       926       924       927       929       926       924       927       930
       927       930       933       934       927       930       933       935
       927       930       933       936       928       927       930       931
       928       927       930       932       928       927       930       933
       929       927       930       931       929       927       930       932
       929       927       930       933       930       933       936       937
       930       933       936       938       930       933       936       939
       931       930       933       934       931       930       933       935
       931       930       933       936       932       930       933       934
       932       930       933       935       932       930       933       936
       933       936       939       940       933       936       939       941
       933       936       939       942       934       933       936       937
       934       933       936       938       934       933       936       939
       935       933       936       937       935       933       936       938
       935       933       936       939       936       939       942       943
       936       939       942       944       936       939       942       945
       937       936       939       940       937       936       939       941
       937       936       939       942       938       936       939       940
       938       936       939       941       938       936       939       942
       939       942       945       946       939       942       945       947
       939       942       945       948       940       939       942       943
       940       939       942       944       940       939       942       945
       941       939       942       943       941       939       942       944
       941       939       942       945       942       945       948       949
       942       945       948       950       942       945       948       951
       943       942       945       946       943       942       945       947
       943       942       945       948       944       942       945       946
       944       942       945       947       944       942       945       948
       945       948       951       952       945       948       951       953
       945       948       951       954       946       945       948       949
       946       945       948       950       946       945       948       951
       947       945       948       949       947       945       948       950
       947       945       948       951       948       951       954       955
       948       951       954       956       948       951       954       957
       949       948       951       952       949       948       951       953
       949       948       951       954       950       948       951       952
       950       948       951       953       950       948       951       954
       951       954       957       958       951       954       957       959
       951       954       957       960       952       951       954       955
       952       951       954       956       952       951       954       957
       953       951       954       955       953       951       954       956
       953       951       954       957       954       957       960       961
       954       957       960       962       954       957       960       963
       955       954       957       958       955       954       957       959
       955       954       957       960       956       954       957       958
       956       954       957       959       956       954       957       960
       957       960       963       964       957       960       963       965
       957       960       963       966       958       957       960       961
       958       957       960       962       958       957       960       963
       959       957       960       961       959       957       960       962
       959       957       960       963       960       963       966       967
       960       963       966       968       960       963       966       969
       961       960       963       964       961       960       963       965
       961       960       963       966       962       960       963       964
       962       960       963       965       962       960       963       966
       963       966       969       970       963       966       969       971
       963       966       969       972       964       963       966       967
       964       963       966       968       964       963       966       969
       965       963       966       967       965       963       966       968
       965       963       966       969       966       969       972       973
       966       969       972       974       966       969       972       975
       967       966       969       970       967       966       969       971
       967       966       969       972       968       966       969       970
       968       966       969       971       968       966       969       972
       969       972       975       976       969       972       975       977
       969       972       975       978       970       969       972       973
       970       969       972       974       970       969       972       975
       971       969       972       973       971       969       972       974
       971       969       972       975       972       975       978       979
       972       975       978       980       972       975       978       981
       973       972       975       976       973       972       975       977
       973       972       975       978       974       972       975       976
       974       972       975       977       974       972       975       978
       975       978       981       982       975       978       981       983
       975       978       981       984       976       975       978       979
       976       975       978       980       976       975       978       981
       977       975       978       979       977       975       978       980
       977       975       978       981       978       981       984       985
       978       981       984       986       978       981       984       987
       979       978       981       982       979       978       981       983
       979       978       981       984       980       978       981       982
       980       978       981       983       980       978       981       984
       981       984       987       988       981       984       987       989
       981       984       987       990       982       981       984       985
       982       981       984       986       982       981       984       987
       983       981       984       985       983       981       984       986
       983       981       984       987       984       987       990       991
       984       987       990       992       984       987       990       993
       985       984       987       988       985       984       987       989
       985       984       987       990       986       984       987       988
       986       984       987       989       986       984       987       990
       987       990       993       994       987       990       993       995
       987       990       993       996       988       987       990       991
       988       987       990       992       988       987       990       993
       989       987       990       991       989       987       990       992
       989       987       990       993       990       993       996       997
       990       993       996       998       990       993       996       999
       991       990       993       994       991       990       993       995
       991       990       993       996       992       990       993       994
       992       990       993       995       992       990       993       996
       993       996       999      1000       993       996       999      1001
       993       996       999      1002       994       993       996       997
       994       993       996       998       994       993       996       999
       995       993       996       997       995       993       996       998
       995       993       996       999       996       999      1002      1003
       996       999      1002      1004       996       999      1002      1005
       997       996       999      1000       997       996       999      1001
       997       996       999      1002       998       996       999      1000
       998       996       999      1001       998       996       999      1002
       999      1002      1005      1006       999      1002      1005      1007
       999      1002      1005      1008      1000       999      1002      1003
      1000       999      1002      1004      1000       999      1002      1005
      1001       999      1002      1003      1001       999      1002      1004
      1001       999      1002      1005      1002      1005      1008      1009
      1002      1005      1008      1010      1002      1005      1008      1011
      1003      1002      1005      1006      1003      1002      1005      1007
      1003      1002      1005      1008      1004      1002      1005      1006
      1004      1002      1005      1007      1004      1002      1005      1008
      1005      1008      1011      1012      1005      1008      1011      1013
      1005      1008      1011      1014      1006      1005      1008      1009
      1006      1005      1008      1010      1006      1005      1008      1011
      1007      1005      1008      1009      1007      1005      1008      1010
      1007      1005      1008      1011      1008      1011      1014      1015
      1008      1011      1014      1016      1008      1011      1014      1017
      1009      1008      1011      1012      1009      1008      1011      1013
      1009      1008      1011      1014      1010      1008      1011      1012
      1010      1008      1011      1013      1010      1008      1011      1014
      1011      1014      1017      1018      1011      1014      1017      1019
      1011      1014      1017      1020      1012      1011      1014      1015
      1012      1011      1014      1016      1012      1011      1014      1017
      1013      1011      1014      1015      1013      1011      1014      1016
      1013      1011      1014      1017      1014      1017      1020      1021
      1014      1017      1020      1022      1014      1017      1020      1023
      1015      1014      1017      1018      1015      1014      1017      1019
      1015      1014      1017      1020      1016      1014      1017      1018
      1016      1014      1017      1019      1016      1014      1017      1020
      1017      1020      1023      1024      1017      1020      1023      1025
      1017      1020      1023      1026      1018      1017      1020      1021
      1018      1017      1020      1022      1018      1017      1020      1023
      1019      1017      1020      1021      1019      1017      1020      1022
      1019      1017      1020      1023      1020      1023      1026      1027
      1020      1023      1026      1028      1020      1023      1026      1029
      1021      1020      1023      1024      1021      1020      1023      1025
      1021      1020      1023      1026      1022      1020      1023      1024
      1022      1020      1023      1025      1022      1020      1023      1026
      1023      1026      1029      1030      1023      1026      1029      1031
      1023      1026      1029      1032      1024      1023      1026      1027
      1024      1023      1026      1028      1024      1023      1026      1029
      1025      1023      1026      1027      1025      1023      1026      1028
      1025      1023      1026      1029      1026      1029      1032      1033
      1026      1029      1032      1034      1026      1029      1032      1035
      1027      1026      1029      1030      1027      1026      1029      1031
      1027      1026      1029      1032      1028      1026      1029      1030
      1028      1026      1029      1031      1028      1026      1029      1032
      1029      1032      1035      1036      1029      1032      1035      1037
      1029      1032      1035      1038      1030      1029      1032      1033
      1030      1029      1032      1034      1030      1029      1032      1035
      1031      1029      1032      1033      1031      1029      1032      1034
      1031      1029      1032      1035      1032      1035      1038      1039
      1032      1035      1038      1040      1032      1035      1038      1041
      1033      1032      1035      1036      1033      1032      1035      1037
      1033      1032      1035      1038      1034      1032      1035      1036
      1034      1032      1035      1037      1034      1032      1035      1038
      1035      1038      1041      1042      1035      1038      1041      1043
      1035      1038      1041      1044      1036      1035      1038      1039
      1036      1035      1038      1040      1036      1035      1038      1041
      1037      1035      1038      1039      1037      1035      1038      1040
      1037      1035      1038      1041      1038      1041      1044      1045
      1038      1041      1044      1046      1038      1041      1044      1047
      1039      1038      1041      1042      1039      1038      1041      1043
      1039      1038      1041      1044      1040      1038      1041      1042
      1040      1038      1041      1043      1040      1038      1041      1044
      1041      1044      1047      1048      1041      1044      1047      1049
      1041      1044      1047      1050      1042      1041      1044      1045
      1042      1041      1044      1046      1042      1041      1044      1047
      1043      1041      1044      1045      1043      1041      1044      1046
      1043      1041      1044      1047      1044      1047      1050      1051
      1044      1047      1050      1052      1044      1047      1050      1053
      1045      1044      1047      1048      1045      1044      1047      1049
      1045      1044      1047      1050      1046      1044      1047      1048
      1046      1044      1047      1049      1046      1044      1047      1050
      1047      1050      1053      1054      1047      1050      1053      1055
      1047      1050      1053      1056      1048      1047      1050      1051
      1048      1047      1050      1052      1048      1047      1050      1053
      1049      1047      1050      1051      1049      1047      1050      1052
      1049      1047      1050      1053      1050      1053      1056      1057
      1050      1053      1056      1058      1050      1053      1056      1059
      1051      1050      1053      1054      1051      1050      1053      1055
      1051      1050      1053      1056      1052      1050      1053      1054
      1052      1050      1053      1055      1052      1050      1053      1056
      1053      1056      1059      1060      1053      1056      1059      1061
      1053      1056      1059      1062      1054      1053      1056      1057
      1054      1053      1056      1058      1054      1053      1056      1059
      1055      1053      1056      1057      1055      1053      1056      1058
      1055      1053      1056      1059      1056      1059      1062      1063
      1056      1059      1062      1064      1056      1059      1062      1065
      1057      1056      1059      1060      1057      1056      1059      1061
      1057      1056      1059      1062      1058      1056      1059      1060
      1058      1056      1059      1061      1058      1056      1059      1062
      1059      1062      1065      1066      1059      1062      1065      1067
      1059      1062      1065      1068      1060      1059      1062      1063
      1060      1059      1062      1064      1060      1059      1062      1065
      1061      1059      1062      1063      1061      1059      1062      1064
      1061      1059      1062      1065      1062      1065      1068      1069
      1062      1065      1068      1070      1062      1065      1068      1071
      1063      1062      1065      1066      1063      1062      1065      1067
      1063      1062      1065      1068      1064      1062      1065      1066
      1064      1062      1065      1067      1064      1062      1065      1068
      1065      1068      1071      1072      1065      1068      1071      1073
      1065      1068      1071      1074      1066      1065      1068      1069
      1066      1065      1068      1070      1066      1065      1068      1071
      1067      1065      1068      1069      1067      1065      1068      1070
      1067      1065      1068      1071      1068      1071      1074      1075
      1068      1071      1074      1076      1068      1071      1074      1077
      1069      1068      1071      1072      1069      1068      1071      1073
      1069      1068      1071      1074      1070      1068      1071      1072
      1070      1068      1071      1073      1070      1068      1071      1074
      1071      1074      1077      1078      1071      1074      1077      1079
      1071      1074      1077      1080      1072      1071      1074      1075
      1072      1071      1074      1076      1072      1071      1074      1077
      1073      1071      1074      1075      1073      1071      1074      1076
      1073      1071      1074      1077      1074      1077      1080      1081
      1074      1077      1080      1082      1074      1077      1080      1083
      1075      1074      1077      1078      1075      1074      1077      1079
      1075      1074      1077      1080      1076      1074      1077      1078
      1076      1074      1077      1079      1076      1074      1077      1080
      1077      1080      1083      1084      1077      1080      1083      1085
      1077      1080      1083      1086      1078      1077      1080      1081
      1078      1077      1080      1082      1078      1077      1080      1083
      1079      1077      1080      1081      1079      1077      1080      1082
      1079      1077      1080      1083      1081      1080      1083      1084
      1081      1080      1083      1085      1081      1080      1083      1086
      1082      1080      1083      1084      1082      1080      1083      1085
      1082      1080      1083      1086      1087      1091      1094      1095
      1087      1091      1094      1096      1087      1091      1094      1097
      1088      1087      1091      1092      1088      1087      1091      1093
      1088      1087      1091      1094      1089      1087      1091      1092
      1089      1087      1091      1093      1089      1087      1091      1094
      1090      1087      1091      1092      1090      1087      1091      1093
      1090      1087      1091      1094      1091      1094      1097      1098
      1091      1094      1097      1099      1091      1094      1097      1100
      1092      1091      1094      1095      1092      1091      1094      1096
      1092      1091      1094      1097      1093      1091      1094      1095
      1093      1091      1094      1096      1093      1091      1094      1097
      1094      1097      1100      1101      1094      1097      1100      1102
      1094      1097      1100      1103      1095      1094      1097      1098
      1095      1094      1097      1099      1095      1094      1097      1100
      1096      1094      1097      1098      1096      1094      1097      1099
      1096      1094      1097      1100      1097      1100      1103      1104
      1097      1100      1103      1105      1097      1100      1103      1106
      1098      1097      1100      1101      1098      1097      1100      1102
      1098      1097      1100      1103      1099      1097      1100      1101
      1099      1097      1100      1102      1099      1097      1100      1103
      1100      1103      1106      1107      1100      1103      1106      1108
      1100      1103      1106      1109      1101      1100      1103      1104
      1101      1100      1103      1105      1101      1100      1103      1106
      1102      1100      1103      1104      1102      1100      1103      1105
      1102      1100      1103      1106      1103      1106      1109      1110
      1103      1106      1109      1111      1103      1106      1109      1112
      1104      1103      1106      1107      1104      1103      1106      1108
      1104      1103      1106      1109      1105      1103      1106      1107
      1105      1103      1106      1108      1105      1103      1106      1109
      1106      1109      1112      1113      1106      1109      1112      1114
      1106      1109      1112      1115      1107      1106      1109      1110
      1107      1106      1109      1111      1107      1106      1109      1112
      1108      1106      1109      1110      1108      1106      1109      1111
      1108      1106      1109      1112      1109      1112      1115      1116
      1109      1112      1115      1117      1109      1112      1115      1118
      1110      1109      1112      1113      1110      1109      1112      1114
      1110      1109      1112      1115      1111      1109      1112      1113
      1111      1109      1112      1114      1111      1109      1112      1115
      1112      1115      1118      1119      1112      1115      1118      1120
      1112      1115      1118      1121      1113      1112      1115      1116
      1113      1112      1115      1117      1113      1112      1115      1118
      1114      1112      1115      1116      1114      1112      1115      1117
      1114      1112      1115      1118      1115      1118      1121      1122
      1115      1118      1121      1123      1115      1118      1121      1124
      1116      1115      1118      1119      1116      1115      1118      1120
      1116      1115      1118      1121      1117      1115      1118      1119
      1117      1115      1118      1120      1117      1115      1118      1121
      1118      1121      1124      1125      1118      1121      1124      1126
      1118      1121      1124      1127      1119      1118      1121      1122
      1119      1118      1121      1123      1119      1118      1121      1124
      1120      1118      1121      1122      1120      1118      1121      1123
      1120      1118      1121      1124      1121      1124      1127      1128
      1121      1124      1127      1129      1121      1124      1127      1130
      1122      1121      1124      1125      1122      1121      1124      1126
      1122      1121      1124      1127      1123      1121      1124      1125
      1123      1121      1124      1126      1123      1121      1124      1127
      1124      1127      1130      1131      1124      1127      1130      1132
      1124      1127      1130      1133      1125      1124      1127      1128
      1125      1124      1127      1129      1125      1124      1127      1130
      1126      1124      1127      1128      1126      1124      1127      1129
      1126      1124      1127      1130      1127      1130      1133      1134
      1127      1130      1133      1135      1127      1130      1133      1136
      1128      1127      1130      1131      1128      1127      1130      1132
      1128      1127      1130      1133      1129      1127      1130      1131
      1129      1127      1130      1132      1129      1127      1130      1133
      1130      1133      1136      1137      1130      1133      1136      1138
      1130      1133      1136      1139      1131      1130      1133      1134
      1131      1130      1133      1135      1131      1130      1133      1136
      1132      1130      1133      1134      1132      1130      1133      1135
      1132      1130      1133      1136      1133      1136      1139      1140
      1133      1136      1139      1141      1133      1136      1139      1142
      1134      1133      1136      1137      1134      1133      1136      1138
      1134      1133      1136      1139      1135      1133      1136      1137
      1135      1133      1136      1138      1135      1133      1136      1139
      1136      1139      1142      1143      1136      1139      1142      1144
      1136      1139      1142      1145      1137      1136      1139      1140
      1137      1136      1139      1141      1137      1136      1139      1142
      1138      1136      1139      1140      1138      1136      1139      1141
      1138      1136      1139      1142      1139      1142      1145      1146
      1139      1142      1145      1147      1139      1142      1145      1148
      1140      1139      1142      1143      1140      1139      1142      1144
      1140      1139      1142      1145      1141      1139      1142      1143
      1141      1139      1142      1144      1141      1139      1142      1145
      1142      1145      1148      1149      1142      1145      1148      1150
      1142      1145      1148      1151      1143      1142      1145      1146
      1143      1142      1145      1147      1143      1142      1145      1148
      1144      1142      1145      1146      1144      1142      1145      1147
      1144      1142      1145      1148      1145      1148      1151      1152
      1145      1148      1151      1153      1145      1148      1151      1154
      1146      1145      1148      1149      1146      1145      1148      1150
      1146      1145      1148      1151      1147      1145      1148      1149
      1147      1145      1148      1150      1147      1145      1148      1151
      1148      1151      1154      1155      1148      1151      1154      1156
      1148      1151      1154      1157      1149      1148      1151      1152
      1149      1148      1151      1153      1149      1148      1151      1154
      1150      1148      1151      1152      1150      1148      1151      1153
      1150      1148      1151      1154      1151      1154      1157      1158
      1151      1154      1157      1159      1151      1154      1157      1160
      1152      1151      1154      1155      1152      1151      1154      1156
      1152      1151      1154      1157      1153      1151      1154      1155
      1153      1151      1154      1156      1153      1151      1154      1157
      1154      1157      1160      1161      1154      1157      1160      1162
      1154      1157      1160      1163      1155      1154      1157      1158
      1155      1154      1157      1159      1155      1154      1157      1160
      1156      1154      1157      1158      1156      1154      1157      1159
      1156      1154      1157      1160      1157      1160      1163      1164
      1157      1160      1163      1165      1157      1160      1163      1166
      1158      1157      1160      1161      1158      1157      1160      1162
      1158      1157      1160      1163      1159      1157      1160      1161
      1159      1157      1160      1162      1159      1157      1160      1163
      1160      1163      1166      1167      1160      1163      1166      1168
      1160      1163      1166      1169      1161      1160      1163      1164
      1161      1160      1163      1165      1161      1160      1163      1166
      1162      1160      1163      1164      1162      1160      1163      1165
      1162      1160      1163      1166      1163      1166      1169      1170
      1163      1166      1169      1171      1163      1166      1169      1172
      1164      1163      1166      1167      1164      1163      1166      1168
      1164      1163      1166      1169      1165      1163      1166      1167
      1165      1163      1166      1168      1165      1163      1166      1169
      1166      1169      1172      1173      1166      1169      1172      1174
      1166      1169      1172      1175      1167      1166      1169      1170
      1167      1166      1169      1171      1167      1166      1169      1172
      1168      1166      1169      1170      1168      1166      1169      1171
      1168      1166      1169      1172      1169      1172      1175      1176
      1169      1172      1175      1177      1169      1172      1175      1178
      1170      1169      1172      1173      1170      1169      1172      1174
      1170      1169      1172      1175      1171      1169      1172      1173
      1171      1169      1172      1174      1171      1169      1172      1175
      1172      1175      1178      1179      1172      1175      1178      1180
      1172      1175      1178      1181      1173      1172      1175      1176
      1173      1172      1175      1177      1173      1172      1175      1178
      1174      1172      1175      1176      1174      1172      1175      1177
      1174      1172      1175      1178      1175      1178      1181      1182
      1175      1178      1181      1183      1175      1178      1181      1184
      1176      1175      1178      1179      1176      1175      1178      1180
      1176      1175      1178      1181      1177      1175      1178      1179
      1177      1175      1178      1180      1177      1175      1178      1181
      1178      1181      1184      1185      1178      1181      1184      1186
      1178      1181      1184      1187      1179      1178      1181      1182
      1179      1178      1181      1183      1179      1178      1181      1184
      1180      1178      1181      1182      1180      1178      1181      1183
      1180      1178      1181      1184      1181      1184      1187      1188
      1181      1184      1187      1189      1181      1184      1187      1190
      1182      1181      1184      1185      1182      1181      1184      1186
      1182      1181      1184      1187      1183      1181      1184      1185
      1183      1181      1184      1186      1183      1181      1184      1187
      1184      1187      1190      1191      1184      1187      1190      1192
      1184      1187      1190      1193      1185      1184      1187      1188
      1185      1184      1187      1189      1185      1184      1187      1190
      1186      1184      1187      1188      1186      1184      1187      1189
      1186      1184      1187      1190      1187      1190      1193      1194
      1187      1190      1193      1195      1187      1190      1193      1196
      1188      1187      1190      1191      1188      1187      1190      1192
      1188      1187      1190      1193      1189      1187      1190      1191
      1189      1187      1190      1192      1189      1187      1190      1193
      1190      1193      1196      1197      1190      1193      1196      1198
      1190      1193      1196      1199      1191      1190      1193      1194
      1191      1190      1193      1195      1191      1190      1193      1196
      1192      1190      1193      1194      1192      1190      1193      1195
      1192      1190      1193      1196      1193      1196      1199      1200
      1193      1196      1199      1201      1193      1196      1199      1202
      1194      1193      1196      1197      1194      1193      1196      1198
      1194      1193      1196      1199      1195      1193      1196      1197
      1195      1193      1196      1198      1195      1193      1196      1199
      1196      1199      1202      1203      1196      1199      1202      1204
      1196      1199      1202      1205      1197      1196      1199      1200
      1197      1196      1199      1201      1197      1196      1199      1202
      1198      1196      1199      1200      1198      1196      1199      1201
      1198      1196      1199      1202      1199      1202      1205      1206
      1199      1202      1205      1207      1199      1202      1205      1208
      1200      1199      1202      1203      1200      1199      1202      1204
      1200      1199      1202      1205      1201      1199      1202      1203
      1201      1199      1202      1204      1201      1199      1202      1205
      1202      1205      1208      1209      1202      1205      1208      1210
      1202      1205      1208      1211      1203      1202      1205      1206
      1203      1202      1205      1207      1203      1202      1205      1208
      1204      1202      1205      1206      1204      1202      1205      1207
      1204      1202      1205      1208      1205      1208      1211      1212
      1205      1208      1211      1213      1205      1208      1211      1214
      1206      1205      1208      1209      1206      1205      1208      1210
      1206      1205      1208      1211      1207      1205      1208      1209
      1207      1205      1208      1210      1207      1205      1208      1211
      1208      1211      1214      1215      1208      1211      1214      1216
      1208      1211      1214      1217      1209      1208      1211      1212
      1209      1208      1211      1213      1209      1208      1211      1214
      1210      1208      1211      1212      1210      1208      1211      1213
      1210      1208      1211      1214      1211      1214      1217      1218
      1211      1214      1217      1219      1211      1214      1217      1220
      1212      1211      1214      1215      1212      1211      1214      1216
      1212      1211      1214      1217      1213      1211      1214      1215
      1213      1211      1214      1216      1213      1211      1214      1217
      1214      1217      1220      1221      1214      1217      1220      1222
      1214      1217      1220      1223      1215      1214      1217      1218
      1215      1214      1217      1219      1215      1214      1217      1220
      1216      1214      1217      1218      1216      1214      1217      1219
      1216      1214      1217      1220      1217      1220      1223      1224
      1217      1220      1223      1225      1217      1220      1223      1226
      1218      1217      1220      1221      1218      1217      1220      1222
      1218      1217      1220      1223      1219      1217      1220      1221
      1219      1217      1220      1222      1219      1217      1220      1223
      1220      1223      1226      1227      1220      1223      1226      1228
      1220      1223      1226      1229      1221      1220      1223      1224
      1221      1220      1223      1225      1221      1220      1223      1226
      1222      1220      1223      1224      1222      1220      1223      1225
      1222      1220      1223      1226      1223      1226      1229      1230
      1223      1226      1229      1231      1223      1226      1229      1232
      1224      1223      1226      1227      1224      1223      1226      1228
      1224      1223      1226      1229      1225      1223      1226      1227
      1225      1223      1226      1228      1225      1223      1226      1229
      1226      1229      1232      1233      1226      1229      1232      1234
      1226      1229      1232      1235      1227      1226      1229      1230
      1227      1226      1229      1231      1227      1226      1229      1232
      1228      1226      1229      1230      1228      1226      1229      1231
      1228      1226      1229      1232      1229      1232      1235      1236
      1229      1232      1235      1237      1229      1232      1235      1238
      1230      1229      1232      1233      1230      1229      1232      1234
      1230      1229      1232      1235      1231      1229      1232      1233
      1231      1229      1232      1234      1231      1229      1232      1235
      1232      1235      1238      1239      1232      1235      1238      1240
      1232      1235      1238      1241      1233      1232      1235      1236
      1233      1232      1235      1237      1233      1232      1235      1238
      1234      1232      1235      1236      1234      1232      1235      1237
      1234      1232      1235      1238      1235      1238      1241      1242
      1235      1238      1241      1243      1235      1238      1241      1244
      1236      1235      1238      1239      1236      1235      1238      1240
      1236      1235      1238      1241      1237      1235      1238      1239
      1237      1235      1238      1240      1237      1235      1238      1241
      1238      1241      1244      1245      1238      1241      1244      1246
      1238      1241      1244      1247      1239      1238      1241      1242
      1239      1238      1241      1243      1239      1238      1241      1244
      1240      1238      1241      1242      1240      1238      1241      1243
      1240      1238      1241      1244      1241      1244      1247      1248
      1241      1244      1247      1249      1241      1244      1247      1250
      1242      1241      1244      1245      1242      1241      1244      1246
      1242      1241      1244      1247      1243      1241      1244      1245
      1243      1241      1244      1246      1243      1241      1244      1247
      1244      1247      1250      1251      1244      1247      1250      1252
      1244      1247      1250      1253      1245      1244      1247      1248
      1245      1244      1247      1249      1245      1244      1247      1250
      1246      1244      1247      1248      1246      1244      1247      1249
      1246      1244      1247      1250      1247      1250      1253      1254
      1247      1250      1253      1255      1247      1250      1253      1256
      1248      1247      1250      1251      1248      1247      1250      1252
      1248      1247      1250      1253      1249      1247      1250      1251
      1249      1247      1250      1252      1249      1247      1250      1253
      1250      1253      1256      1257      1250      1253      1256      1258
      1250      1253      1256      1259      1251      1250      1253      1254
      1251      1250      1253      1255      1251      1250      1253      1256
      1252      1250      1253      1254      1252      1250      1253      1255
      1252      1250      1253      1256      1253      1256      1259      1260
      1253      1256      1259      1261      1253      1256      1259      1262
      1254      1253      1256      1257      1254      1253      1256      1258
      1254      1253      1256      1259      1255      1253      1256      1257
      1255      1253      1256      1258      1255      1253      1256      1259
      1256      1259      1262      1263      1256      1259      1262      1264
      1256      1259      1262      1265      1257      1256      1259      1260
      1257      1256      1259      1261      1257      1256      1259      1262
      1258      1256      1259      1260      1258      1256      1259      1261
      1258      1256      1259      1262      1259      1262      1265      1266
      1259      1262      1265      1267      1259      1262      1265      1268
      1260      1259      1262      1263      1260      1259      1262      1264
      1260      1259      1262      1265      1261      1259      1262      1263
      1261      1259      1262      1264      1261      1259      1262      1265
      1262      1265      1268      1269      1262      1265      1268      1270
      1262      1265      1268      1271      1263      1262      1265      1266
      1263      1262      1265      1267      1263      1262      1265      1268
      1264      1262      1265      1266      1264      1262      1265      1267
      1264      1262      1265      1268      1265      1268      1271      1272
      1265      1268      1271      1273      1265      1268      1271      1274
      1266      1265      1268      1269      1266      1265      1268      1270
      1266      1265      1268      1271      1267      1265      1268      1269
      1267      1265      1268      1270      1267      1265      1268      1271
      1268      1271      1274      1275      1268      1271      1274      1276
      1268      1271      1274      1277      1269      1268      1271      1272
      1269      1268      1271      1273      1269      1268      1271      1274
      1270      1268      1271      1272      1270      1268      1271      1273
      1270      1268      1271      1274      1271      1274      1277      1278
      1271      1274      1277      1279      1271      1274      1277      1280
      1272      1271      1274      1275      1272      1271      1274      1276
      1272      1271      1274      1277      1273      1271      1274      1275
      1273      1271      1274      1276      1273      1271      1274      1277
      1274      1277      1280      1281      1274      1277      1280      1282
      1274      1277      1280      1283      1275      1274      1277      1278
      1275      1274      1277      1279      1275      1274      1277      1280
      1276      1274      1277      1278      1276      1274      1277      1279
      1276      1274      1277      1280      1277      1280      1283      1284
      1277      1280      1283      1285      1277      1280      1283      1286
      1278      1277      1280      1281      1278      1277      1280      1282
      1278      1277      1280      1283      1279      1277      1280      1281
      1279      1277      1280      1282      1279      1277      1280      1283
      1280      1283      1286      1287      1280      1283      1286      1288
      1280      1283      1286      1289      1281      1280      1283      1284
      1281      1280      1283      1285      1281      1280      1283      1286
      1282      1280      1283      1284      1282      1280      1283      1285
      1282      1280      1283      1286      1283      1286      1289      1290
      1283      1286      1289      1291      1283      1286      1289      1292
      1284      1283      1286      1287      1284      1283      1286      1288
      1284      1283      1286      1289      1285      1283      1286      1287
      1285      1283      1286      1288      1285      1283      1286      1289
      1286      1289      1292      1293      1286      1289      1292      1294
      1286      1289      1292      1295      1287      1286      1289      1290
      1287      1286      1289      1291      1287      1286      1289      1292
      1288      1286      1289      1290      1288      1286      1289      1291
      1288      1286      1289      1292      1289      1292      1295      1296
      1289      1292      1295      1297      1289      1292      1295      1298
      1290      1289      1292      1293      1290      1289      1292      1294
      1290      1289      1292      1295      1291      1289      1292      1293
      1291      1289      1292      1294      1291      1289      1292      1295
      1292      1295      1298      1299      1292      1295      1298      1300
      1292      1295      1298      1301      1293      1292      1295      1296
      1293      1292      1295      1297      1293      1292      1295      1298
      1294      1292      1295      1296      1294      1292      1295      1297
      1294      1292      1295      1298      1295      1298      1301      1302
      1295      1298      1301      1303      1295      1298      1301      1304
      1296      1295      1298      1299      1296      1295      1298      1300
      1296      1295      1298      1301      1297      1295      1298      1299
      1297      1295      1298      1300      1297      1295      1298      1301
      1298      1301      1304      1305      1298      1301      1304      1306
      1298      1301      1304      1307      1299      1298      1301      1302
      1299      1298      1301      1303      1299      1298      1301      1304
      1300      1298      1301      1302      1300      1298      1301      1303
      1300      1298      1301      1304      1301      1304      1307      1308
      1301      1304      1307      1309      1301      1304      1307      1310
      1302      1301      1304      1305      1302      1301      1304      1306
      1302      1301      1304      1307      1303      1301      1304      1305
      1303      1301      1304      1306      1303      1301      1304      1307
      1304      1307      1310      1311      1304      1307      1310      1312
      1304      1307      1310      1313      1305      1304      1307      1308
      1305      1304      1307      1309      1305      1304      1307      1310
      1306      1304      1307      1308      1306      1304      1307      1309
      1306      1304      1307      1310      1307      1310      1313      1314
      1307      1310      1313      1315      1307      1310      1313      1316
      1308      1307      1310      1311      1308      1307      1310      1312
      1308      1307      1310      1313      1309      1307      1310      1311
      1309      1307      1310      1312      1309      1307      1310      1313
      1310      1313      1316      1317      1310      1313      1316      1318
      1310      1313      1316      1319      1311      1310      1313      1314
      1311      1310      1313      1315      1311      1310      1313      1316
      1312      1310      1313      1314      1312      1310      1313      1315
      1312      1310      1313      1316      1313      1316      1319      1320
      1313      1316      1319      1321      1313      1316      1319      1322
      1314      1313      1316      1317      1314      1313      1316      1318
      1314      1313      1316      1319      1315      1313      1316      1317
      1315      1313      1316      1318      1315      1313      1316      1319
      1316      1319      1322      1323      1316      1319      1322      1324
      1316      1319      1322      1325      1317      1316      1319      1320
      1317      1316      1319      1321      1317      1316      1319      1322
      1318      1316      1319      1320      1318      1316      1319      1321
      1318      1316      1319      1322      1319      1322      1325      1326
      1319      1322      1325      1327      1319      1322      1325      1328
      1320      1319      1322      1323      1320      1319      1322      1324
      1320      1319      1322      1325      1321      1319      1322      1323
      1321      1319      1322      1324      1321      1319      1322      1325
      1322      1325      1328      1329      1322      1325      1328      1330
      1322      1325      1328      1331      1323      1322      1325      1326
      1323      1322      1325      1327      1323      1322      1325      1328
      1324      1322      1325      1326      1324      1322      1325      1327
      1324      1322      1325      1328      1325      1328      1331      1332
      1325      1328      1331      1333      1325      1328      1331      1334
      1326      1325      1328      1329      1326      1325      1328      1330
      1326      1325      1328      1331      1327      1325      1328      1329
      1327      1325      1328      1330      1327      1325      1328      1331
      1328      1331      1334      1335      1328      1331      1334      1336
      1328      1331      1334      1337      1329      1328      1331      1332
      1329      1328      1331      1333      1329      1328      1331      1334
      1330      1328      1331      1332      1330      1328      1331      1333
      1330      1328      1331      1334      1331      1334      1337      1338
      1331      1334      1337      1339      1331      1334      1337      1340
      1332      1331      1334      1335      1332      1331      1334      1336
      1332      1331      1334      1337      1333      1331      1334      1335
      1333      1331      1334      1336      1333      1331      1334      1337
      1334      1337      1340      1341      1334      1337      1340      1342
      1334      1337      1340      1343      1335      1334      1337      1338
      1335      1334      1337      1339      1335      1334      1337      1340
      1336      1334      1337      1338      1336      1334      1337      1339
      1336      1334      1337      1340      1337      1340      1343      1344
      1337      1340      1343      1345      1337      1340      1343      1346
      1338      1337      1340      1341      1338      1337      1340      1342
      1338      1337      1340      1343      1339      1337      1340      1341
      1339      1337      1340      1342      1339      1337      1340      1343
      1340      1343      1346      1347      1340      1343      1346      1348
      1340      1343      1346      1349      1341      1340      1343      1344
      1341      1340      1343      1345      1341      1340      1343      1346
      1342      1340      1343      1344      1342      1340      1343      1345
      1342      1340      1343      1346      1343      1346      1349      1350
      1343      1346      1349      1351      1343      1346      1349      1352
      1344      1343      1346      1347      1344      1343      1346      1348
      1344      1343      1346      1349      1345      1343      1346      1347
      1345      1343      1346      1348      1345      1343      1346      1349
      1346      1349      1352      1353      1346      1349      1352      1354
      1346      1349      1352      1355      1347      1346      1349      1350
      1347      1346      1349      1351      1347      1346      1349      1352
      1348      1346      1349      1350      1348      1346      1349      1351
      1348      1346      1349      1352      1349      1352      1355      1356
      1349      1352      1355      1357      1349      1352      1355      1358
      1350      1349      1352      1353      1350      1349      1352      1354
      1350      1349      1352      1355      1351      1349      1352      1353
      1351      1349      1352      1354      1351      1349      1352      1355
      1352      1355      1358      1359      1352      1355      1358      1360
      1352      1355      1358      1361      1353      1352      1355      1356
      1353      1352      1355      1357      1353      1352      1355      1358
      1354      1352      1355      1356      1354      1352      1355      1357
      1354      1352      1355      1358      1355      1358      1361      1362
      1355      1358      1361      1363      1355      1358      1361      1364
      1356      1355      1358      1359      1356      1355      1358      1360
      1356      1355      1358      1361      1357      1355      1358      1359
      1357      1355      1358      1360      1357      1355      1358      1361
      1358      1361      1364      1365      1358      1361      1364      1366
      1358      1361      1364      1367      1359      1358      1361      1362
      1359      1358      1361      1363      1359      1358      1361      1364
      1360      1358      1361      1362      1360      1358      1361      1363
      1360      1358      1361      1364      1361      1364      1367      1368
      1361      1364      1367      1369      1361      1364      1367      1370
      1362      1361      1364      1365      1362      1361      1364      1366
      1362      1361      1364      1367      1363      1361      1364      1365
      1363      1361      1364      1366      1363      1361      1364      1367
      1364      1367      1370      1371      1364      1367      1370      1372
      1364      1367      1370      1373      1365      1364      1367      1368
      1365      1364      1367      1369      1365      1364      1367      1370
      1366      1364      1367      1368      1366      1364      1367      1369
      1366      1364      1367      1370      1367      1370      1373      1374
      1367      1370      1373      1375      1367      1370      1373      1376
      1368      1367      1370      1371      1368      1367      1370      1372
      1368      1367      1370      1373      1369      1367      1370      1371
      1369      1367      1370      1372      1369      1367      1370      1373
      1370      1373      1376      1377      1370      1373      1376      1378
      1370      1373      1376      1379      1371      1370      1373      1374
      1371      1370      1373      1375      1371      1370      1373      1376
      1372      1370      1373      1374      1372      1370      1373      1375
      1372      1370      1373      1376      1373      1376      1379      1380
      1373      1376      1379      1381      1373      1376      1379      1382
      1374      1373      1376      1377      1374      1373      1376      1378
      1374      1373      1376      1379      1375      1373      1376      1377
      1375      1373      1376      1378      1375      1373      1376      1379
      1376      1379      1382      1383      1376      1379      1382      1384
      1376      1379      1382      1385      1377      1376      1379      1380
      1377      1376      1379      1381      1377      1376      1379      1382
      1378      1376      1379      1380      1378      1376      1379      1381
      1378      1376      1379      1382      1379      1382      1385      1386
      1379      1382      1385      1387      1379      1382      1385      1388
      1380      1379      1382      1383      1380      1379      1382      1384
      1380      1379      1382      1385      1381      1379      1382      1383
      1381      1379      1382      1384      1381      1379      1382      1385
      1382      1385      1388      1389      1382      1385      1388      1390
      1382      1385      1388      1391      1383      1382      1385      1386
      1383      1382      1385      1387      1383      1382      1385      1388
      1384      1382      1385      1386      1384      1382      1385      1387
      1384      1382      1385      1388      1385      1388      1391      1392
      1385      1388      1391      1393      1385      1388      1391      1394
      1386      1385      1388      1389      1386      1385      1388      1390
      1386      1385      1388      1391      1387      1385      1388      1389
      1387      1385      1388      1390      1387      1385      1388      1391
      1388      1391      1394      1395      1388      1391      1394      1396
      1388      1391      1394      1397      1389      1388      1391      1392
      1389      1388      1391      1393      1389      1388      1391      1394
      1390      1388      1391      1392      1390      1388      1391      1393
      1390      1388      1391      1394      1391      1394      1397      1398
      1391      1394      1397      1399      1391      1394      1397      1400
      1392      1391      1394      1395      1392      1391      1394      1396
      1392      1391      1394      1397      1393      1391      1394      1395
      1393      1391      1394      1396      1393      1391      1394      1397
      1394      1397      1400      1401      1394      1397      1400      1402
      1394      1397      1400      1403      1395      1394      1397      1398
      1395      1394      1397      1399      1395      1394      1397      1400
      1396      1394      1397      1398      1396      1394      1397      1399
      1396      1394      1397      1400      1397      1400      1403      1404
      1397      1400      1403      1405      1397      1400      1403      1406
      1398      1397      1400      1401      1398      1397      1400      1402
      1398      1397      1400      1403      1399      1397      1400      1401
      1399      1397      1400      1402      1399      1397      1400      1403
      1400      1403      1406      1407      1400      1403      1406      1408
      1400      1403      1406      1409      1401      1400      1403      1404
      1401      1400      1403      1405      1401      1400      1403      1406
      1402      1400      1403      1404      1402      1400      1403      1405
      1402      1400      1403      1406      1403      1406      1409      1410
      1403      1406      1409      1411      1403      1406      1409      1412
      1404      1403      1406      1407      1404      1403      1406      1408
      1404      1403      1406      1409      1405      1403      1406      1407
      1405      1403      1406      1408      1405      1403      1406      1409
      1406      1409      1412      1413      1406      1409      1412      1414
      1406      1409      1412      1415      1407      1406      1409      1410
      1407      1406      1409      1411      1407      1406      1409      1412
      1408      1406      1409      1410      1408      1406      1409      1411
      1408      1406      1409      1412      1409      1412      1415      1416
      1409      1412      1415      1417      1409      1412      1415      1418
      1410      1409      1412      1413      1410      1409      1412      1414
      1410      1409      1412      1415      1411      1409      1412      1413
      1411      1409      1412      1414      1411      1409      1412      1415
      1412      1415      1418      1419      1412      1415      1418      1420
      1412      1415      1418      1421      1413      1412      1415      1416
      1413      1412      1415      1417      1413      1412      1415      1418
      1414      1412      1415      1416      1414      1412      1415      1417
      1414      1412      1415      1418      1415      1418      1421      1422
      1415      1418      1421      1423      1415      1418      1421      1424
      1416      1415      1418      1419      1416      1415      1418      1420
      1416      1415      1418      1421      1417      1415      1418      1419
      1417      1415      1418      1420      1417      1415      1418      1421
      1418      1421      1424      1425      1418      1421      1424      1426
      1418      1421      1424      1427      1419      1418      1421      1422
      1419      1418      1421      1423      1419      1418      1421      1424
      1420      1418      1421      1422      1420      1418      1421      1423
      1420      1418      1421      1424      1421      1424      1427      1428
      1421      1424      1427      1429      1421      1424      1427      1430
      1422      1421      1424      1425      1422      1421      1424      1426
      1422      1421      1424      1427      1423      1421      1424      1425
      1423      1421      1424      1426      1423      1421      1424      1427
      1424      1427      1430      1431      1424      1427      1430      1432
      1424      1427      1430      1433      1425      1424      1427      1428
      1425      1424      1427      1429      1425      1424      1427      1430
      1426      1424      1427      1428      1426      1424      1427      1429
      1426      1424      1427      1430      1427      1430      1433      1434
      1427      1430      1433      1435      1427      1430      1433      1436
      1428      1427      1430      1431      1428      1427      1430      1432
      1428      1427      1430      1433      1429      1427      1430      1431
      1429      1427      1430      1432      1429      1427      1430      1433
      1430      1433      1436      1437      1430      1433      1436      1438
      1430      1433      1436      1439      1431      1430      1433      1434
      1431      1430      1433      1435      1431      1430      1433      1436
      1432      1430      1433      1434      1432      1430      1433      1435
      1432      1430      1433      1436      1433      1436      1439      1440
      1433      1436      1439      1441      1433      1436      1439      1442
      1434      1433      1436      1437      1434      1433      1436      1438
      1434      1433      1436      1439      1435      1433      1436      1437
      1435      1433      1436      1438      1435      1433      1436      1439
      1436      1439      1442      1443      1436      1439      1442      1444
      1436      1439      1442      1445      1437      1436      1439      1440
      1437      1436      1439      1441      1437      1436      1439      1442
      1438      1436      1439      1440      1438      1436      1439      1441
      1438      1436      1439      1442      1439      1442      1445      1446
      1439      1442      1445      1447      1439      1442      1445      1448
      1440      1439      1442      1443      1440      1439      1442      1444
      1440      1439      1442      1445      1441      1439      1442      1443
      1441      1439      1442      1444      1441      1439      1442      1445
      1443      1442      1445      1446      1443      1442      1445      1447
      1443      1442      1445      1448      1444      1442      1445      1446
      1444      1442      1445      1447      1444      1442      1445      1448
      1449      1453      1456      1457      1449      1453      1456      1458
      1449      1453      1456      1459      1450      1449      1453      1454
      1450      1449      1453      1455      1450      1449      1453      1456
      1451      1449      1453      1454      1451      1449      1453      1455
      1451      1449      1453      1456      1452      1449      1453      1454
      1452      1449      1453      1455      1452      1449      1453      1456
      1453      1456      1459      1460      1453      1456      1459      1461
      1453      1456      1459      1462      1454      1453      1456      1457
      1454      1453      1456      1458      1454      1453      1456      1459
      1455      1453      1456      1457      1455      1453      1456      1458
      1455      1453      1456      1459      1456      1459      1462      1463
      1456      1459      1462      1464      1456      1459      1462      1465
      1457      1456      1459      1460      1457      1456      1459      1461
      1457      1456      1459      1462      1458      1456      1459      1460
      1458      1456      1459      1461      1458      1456      1459      1462
      1459      1462      1465      1466      1459      1462      1465      1467
      1459      1462      1465      1468      1460      1459      1462      1463
      1460      1459      1462      1464      1460      1459      1462      1465
      1461      1459      1462      1463      1461      1459      1462      1464
      1461      1459      1462      1465      1462      1465      1468      1469
      1462      1465      1468      1470      1462      1465      1468      1471
      1463      1462      1465      1466      1463      1462      1465      1467
      1463      1462      1465      1468      1464      1462      1465      1466
      1464      1462      1465      1467      1464      1462      1465      1468
      1465      1468      1471      1472      1465      1468      1471      1473
      1465      1468      1471      1474      1466      1465      1468      1469
      1466      1465      1468      1470      1466      1465      1468      1471
      1467      1465      1468      1469      1467      1465      1468      1470
      1467      1465      1468      1471      1468      1471      1474      1475
      1468      1471      1474      1476      1468      1471      1474      1477
      1469      1468      1471      1472      1469      1468      1471      1473
      1469      1468      1471      1474      1470      1468      1471      1472
      1470      1468      1471      1473      1470      1468      1471      1474
      1471      1474      1477      1478      1471      1474      1477      1479
      1471      1474      1477      1480      1472      1471      1474      1475
      1472      1471      1474      1476      1472      1471      1474      1477
      1473      1471      1474      1475      1473      1471      1474      1476
      1473      1471      1474      1477      1474      1477      1480      1481
      1474      1477      1480      1482      1474      1477      1480      1483
      1475      1474      1477      1478      1475      1474      1477      1479
      1475      1474      1477      1480      1476      1474      1477      1478
      1476      1474      1477      1479      1476      1474      1477      1480
      1477      1480      1483      1484      1477      1480      1483      1485
      1477      1480      1483      1486      1478      1477      1480      1481
      1478      1477      1480      1482      1478      1477      1480      1483
      1479      1477      1480      1481      1479      1477      1480      1482
      1479      1477      1480      1483      1480      1483      1486      1487
      1480      1483      1486      1488      1480      1483      1486      1489
      1481      1480      1483      1484      1481      1480      1483      1485
      1481      1480      1483      1486      1482      1480      1483      1484
      1482      1480      1483      1485      1482      1480      1483      1486
      1483      1486      1489      1490      1483      1486      1489      1491
      1483      1486      1489      1492      1484      1483      1486      1487
      1484      1483      1486      1488      1484      1483      1486      1489
      1485      1483      1486      1487      1485      1483      1486      1488
      1485      1483      1486      1489      1486      1489      1492      1493
      1486      1489      1492      1494      1486      1489      1492      1495
      1487      1486      1489      1490      1487      1486      1489      1491
      1487      1486      1489      1492      1488      1486      1489      1490
      1488      1486      1489      1491      1488      1486      1489      1492
      1489      1492      1495      1496      1489      1492      1495      1497
      1489      1492      1495      1498      1490      1489      1492      1493
      1490      1489      1492      1494      1490      1489      1492      1495
      1491      1489      1492      1493      1491      1489      1492      1494
      1491      1489      1492      1495      1492      1495      1498      1499
      1492      1495      1498      1500      1492      1495      1498      1501
      1493      1492      1495      1496      1493      1492      1495      1497
      1493      1492      1495      1498      1494      1492      1495      1496
      1494      1492      1495      1497      1494      1492      1495      1498
      1495      1498      1501      1502      1495      1498      1501      1503
      1495      1498      1501      1504      1496      1495      1498      1499
      1496      1495      1498      1500      1496      1495      1498      1501
      1497      1495      1498      1499      1497      1495      1498      1500
      1497      1495      1498      1501      1498      1501      1504      1505
      1498      1501      1504      1506      1498      1501      1504      1507
      1499      1498      1501      1502      1499      1498      1501      1503
      1499      1498      1501      1504      1500      1498      1501      1502
      1500      1498      1501      1503      1500      1498      1501      1504
      1501      1504      1507      1508      1501      1504      1507      1509
      1501      1504      1507      1510      1502      1501      1504      1505
      1502      1501      1504      1506      1502      1501      1504      1507
      1503      1501      1504      1505      1503      1501      1504      1506
      1503      1501      1504      1507      1504      1507      1510      1511
      1504      1507      1510      1512      1504      1507      1510      1513
      1505      1504      1507      1508      1505      1504      1507      1509
      1505      1504      1507      1510      1506      1504      1507      1508
      1506      1504      1507      1509      1506      1504      1507      1510
      1507      1510      1513      1514      1507      1510      1513      1515
      1507      1510      1513      1516      1508      1507      1510      1511
      1508      1507      1510      1512      1508      1507      1510      1513
      1509      1507      1510      1511      1509      1507      1510      1512
      1509      1507      1510      1513      1510      1513      1516      1517
      1510      1513      1516      1518      1510      1513      1516      1519
      1511      1510      1513      1514      1511      1510      1513      1515
      1511      1510      1513      1516      1512      1510      1513      1514
      1512      1510      1513      1515      1512      1510      1513      1516
      1513      1516      1519      1520      1513      1516      1519      1521
      1513      1516      1519      1522      1514      1513      1516      1517
      1514      1513      1516      1518      1514      1513      1516      1519
      1515      1513      1516      1517      1515      1513      1516      1518
      1515      1513      1516      1519      1516      1519      1522      1523
      1516      1519      1522      1524      1516      1519      1522      1525
      1517      1516      1519      1520      1517      1516      1519      1521
      1517      1516      1519      1522      1518      1516      1519      1520
      1518      1516      1519      1521      1518      1516      1519      1522
      1519      1522      1525      1526      1519      1522      1525      1527
      1519      1522      1525      1528      1520      1519      1522      1523
      1520      1519      1522      1524      1520      1519      1522      1525
      1521      1519      1522      1523      1521      1519      1522      1524
      1521      1519      1522      1525      1522      1525      1528      1529
      1522      1525      1528      1530      1522      1525      1528      1531
      1523      1522      1525      1526      1523      1522      1525      1527
      1523      1522      1525      1528      1524      1522      1525      1526
      1524      1522      1525      1527      1524      1522      1525      1528
      1525      1528      1531      1532      1525      1528      1531      1533
      1525      1528      1531      1534      1526      1525      1528      1529
      1526      1525      1528      1530      1526      1525      1528      1531
      1527      1525      1528      1529      1527      1525      1528      1530
      1527      1525      1528      1531      1528      1531      1534      1535
      1528      1531      1534      1536      1528      1531      1534      1537
      1529      1528      1531      1532      1529      1528      1531      1533
      1529      1528      1531      1534      1530      1528      1531      1532
      1530      1528      1531      1533      1530      1528      1531      1534
      1531      1534      1537      1538      1531      1534      1537      1539
      1531      1534      1537      1540      1532      1531      1534      1535
      1532      1531      1534      1536      1532      1531      1534      1537
      1533      1531      1534      1535      1533      1531      1534      1536
      1533      1531      1534      1537      1534      1537      1540      1541
      1534      1537      1540      1542      1534      1537      1540      1543
      1535      1534      1537      1538      1535      1534      1537      1539
      1535      1534      1537      1540      1536      1534      1537      1538
      1536      1534      1537      1539      1536      1534      1537      1540
      1537      1540      1543      1544      1537      1540      1543      1545
      1537      1540      1543      1546      1538      1537      1540      1541
      1538      1537      1540      1542      1538      1537      1540      1543
      1539      1537      1540      1541      1539      1537      1540      1542
      1539      1537      1540      1543      1540      1543      1546      1547
      1540      1543      1546      1548      1540      1543      1546      1549
      1541      1540      1543      1544      1541      1540      1543      1545
      1541      1540      1543      1546      1542      1540      1543      1544
      1542      1540      1543      1545      1542      1540      1543      1546
      1543      1546      1549      1550      1543      1546      1549      1551
      1543      1546      1549      1552      1544      1543      1546      1547
      1544      1543      1546      1548      1544      1543      1546      1549
      1545      1543      1546      1547      1545      1543      1546      1548
      1545      1543      1546      1549      1546      1549      1552      1553
      1546      1549      1552      1554      1546      1549      1552      1555
      1547      1546      1549      1550      1547      1546      1549      1551
      1547      1546      1549      1552      1548      1546      1549      1550
      1548      1546      1549      1551      1548      1546      1549      1552
      1549      1552      1555      1556      1549      1552      1555      1557
      1549      1552      1555      1558      1550      1549      1552      1553
      1550      1549      1552      1554      1550      1549      1552      1555
      1551      1549      1552      1553      1551      1549      1552      1554
      1551      1549      1552      1555      1552      1555      1558      1559
      1552      1555      1558      1560      1552      1555      1558      1561
      1553      1552      1555      1556      1553      1552      1555      1557
      1553      1552      1555      1558      1554      1552      1555      1556
      1554      1552      1555      1557      1554      1552      1555      1558
      1555      1558      1561      1562      1555      1558      1561      1563
      1555      1558      1561      1564      1556      1555      1558      1559
      1556      1555      1558      1560      1556      1555      1558      1561
      1557      1555      1558      1559      1557      1555      1558      1560
      1557      1555      1558      1561      1558      1561      1564      1565
      1558      1561      1564      1566      1558      1561      1564      1567
      1559      1558      1561      1562      1559      1558      1561      1563
      1559      1558      1561      1564      1560      1558      1561      1562
      1560      1558      1561      1563      1560      1558      1561      1564
      1561      1564      1567      1568      1561      1564      1567      1569
      1561      1564      1567      1570      1562      1561      1564      1565
      1562      1561      1564      1566      1562      1561      1564      1567
      1563      1561      1564      1565      1563      1561      1564      1566
      1563      1561      1564      1567      1564      1567      1570      1571
      1564      1567      1570      1572      1564      1567      1570      1573
      1565      1564      1567      1568      1565      1564      1567      1569
      1565      1564      1567      1570      1566      1564      1567      1568
      1566      1564      1567      1569      1566      1564      1567      1570
      1567      1570      1573      1574      1567      1570      1573      1575
      1567      1570      1573      1576      1568      1567      1570      1571
      1568      1567      1570      1572      1568      1567      1570      1573
      1569      1567      1570      1571      1569      1567      1570      1572
      1569      1567      1570      1573      1570      1573      1576      1577
      1570      1573      1576      1578      1570      1573      1576      1579
      1571      1570      1573      1574      1571      1570      1573      1575
      1571      1570      1573      1576      1572      1570      1573      1574
      1572      1570      1573      1575      1572      1570      1573      1576
      1573      1576      1579      1580      1573      1576      1579      1581
      1573      1576      1579      1582      1574      1573      1576      1577
      1574      1573      1576      1578      1574      1573      1576      1579
      1575      1573      1576      1577      1575      1573      1576      1578
      1575      1573      1576      1579      1576      1579      1582      1583
      1576      1579      1582      1584      1576      1579      1582      1585
      1577      1576      1579      1580      1577      1576      1579      1581
      1577      1576      1579      1582      1578      1576      1579      1580
      1578      1576      1579      1581      1578      1576      1579      1582
      1579      1582      1585      1586      1579      1582      1585      1587
      1579      1582      1585      1588      1580      1579      1582      1583
      1580      1579      1582      1584      1580      1579      1582      1585
      1581      1579      1582      1583      1581      1579      1582      1584
      1581      1579      1582      1585      1582      1585      1588      1589
      1582      1585      1588      1590      1582      1585      1588      1591
      1583      1582      1585      1586      1583      1582      1585      1587
      1583      1582      1585      1588      1584      1582      1585      1586
      1584      1582      1585      1587      1584      1582      1585      1588
      1585      1588      1591      1592      1585      1588      1591      1593
      1585      1588      1591      1594      1586      1585      1588      1589
      1586      1585      1588      1590      1586      1585      1588      1591
      1587      1585      1588      1589      1587      1585      1588      1590
      1587      1585      1588      1591      1588      1591      1594      1595
      1588      1591      1594      1596      1588      1591      1594      1597
      1589      1588      1591      1592      1589      1588      1591      1593
      1589      1588      1591      1594      1590      1588      1591      1592
      1590      1588      1591      1593      1590      1588      1591      1594
      1591      1594      1597      1598      1591      1594      1597      1599
      1591      1594      1597      1600      1592      1591      1594      1595
      1592      1591      1594      1596      1592      1591      1594      1597
      1593      1591      1594      1595      1593      1591      1594      1596
      1593      1591      1594      1597      1594      1597      1600      1601
      1594      1597      1600      1602      1594      1597      1600      1603
      1595      1594      1597      1598      1595      1594      1597      1599
      1595      1594      1597      1600      1596      1594      1597      1598
      1596      1594      1597      1599      1596      1594      1597      1600
      1597      1600      1603      1604      1597      1600      1603      1605
      1597      1600      1603      1606      1598      1597      1600      1601
      1598      1597      1600      1602      1598      1597      1600      1603
      1599      1597      1600      1601      1599      1597      1600      1602
      1599      1597      1600      1603      1600      1603      1606      1607
      1600      1603      1606      1608      1600      1603      1606      1609
      1601      1600      1603      1604      1601      1600      1603      1605
      1601      1600      1603      1606      1602      1600      1603      1604
      1602      1600      1603      1605      1602      1600      1603      1606
      1603      1606      1609      1610      1603      1606      1609      1611
      1603      1606      1609      1612      1604      1603      1606      1607
      1604      1603      1606      1608      1604      1603      1606      1609
      1605      1603      1606      1607      1605      1603      1606      1608
      1605      1603      1606      1609      1606      1609      1612      1613
      1606      1609      1612      1614      1606      1609      1612      1615
      1607      1606      1609      1610      1607      1606      1609      1611
      1607      1606      1609      1612      1608      1606      1609      1610
      1608      1606      1609      1611      1608      1606      1609      1612
      1609      1612      1615      1616      1609      1612      1615      1617
      1609      1612      1615      1618      1610      1609      1612      1613
      1610      1609      1612      1614      1610      1609      1612      1615
      1611      1609      1612      1613      1611      1609      1612      1614
      1611      1609      1612      1615      1612      1615      1618      1619
      1612      1615      1618      1620      1612      1615      1618      1621
      1613      1612      1615      1616      1613      1612      1615      1617
      1613      1612      1615      1618      1614      1612      1615      1616
      1614      1612      1615      1617      1614      1612      1615      1618
      1615      1618      1621      1622      1615      1618      1621      1623
      1615      1618      1621      1624      1616      1615      1618      1619
      1616      1615      1618      1620      1616      1615      1618      1621
      1617      1615      1618      1619      1617      1615      1618      1620
      1617      1615      1618      1621      1618      1621      1624      1625
      1618      1621      1624      1626      1618      1621      1624      1627
      1619      1618      1621      1622      1619      1618      1621      1623
      1619      1618      1621      1624      1620      1618      1621      1622
      1620      1618      1621      1623      1620      1618      1621      1624
      1621      1624      1627      1628      1621      1624      1627      1629
      1621      1624      1627      1630      1622      1621      1624      1625
      1622      1621      1624      1626      1622      1621      1624      1627
      1623      1621      1624      1625      1623      1621      1624      1626
      1623      1621      1624      1627      1624      1627      1630      1631
      1624      1627      1630      1632      1624      1627      1630      1633
      1625      1624      1627      1628      1625      1624      1627      1629
      1625      1624      1627      1630      1626      1624      1627      1628
      1626      1624      1627      1629      1626      1624      1627      1630
      1627      1630      1633      1634      1627      1630      1633      1635
      1627      1630      1633      1636      1628      1627      1630      1631
      1628      1627      1630      1632      1628      1627      1630      1633
      1629      1627      1630      1631      1629      1627      1630      1632
      1629      1627      1630      1633      1630      1633      1636      1637
      1630      1633      1636      1638      1630      1633      1636      1639
      1631      1630      1633      1634      1631      1630      1633      1635
      1631      1630      1633      1636      1632      1630      1633      1634
      1632      1630      1633      1635      1632      1630      1633      1636
      1633      1636      1639      1640      1633      1636      1639      1641
      1633      1636      1639      1642      1634      1633      1636      1637
      1634      1633      1636      1638      1634      1633      1636      1639
      1635      1633      1636      1637      1635      1633      1636      1638
      1635      1633      1636      1639      1636      1639      1642      1643
      1636      1639      1642      1644      1636      1639      1642      1645
      1637      1636      1639      1640      1637      1636      1639      1641
      1637      1636      1639      1642      1638      1636      1639      1640
      1638      1636      1639      1641      1638      1636      1639      1642
      1639      1642      1645      1646      1639      1642      1645      1647
      1639      1642      1645      1648      1640      1639      1642      1643
      1640      1639      1642      1644      1640      1639      1642      1645
      1641      1639      1642      1643      1641      1639      1642      1644
      1641      1639      1642      1645      1642      1645      1648      1649
      1642      1645      1648      1650      1642      1645      1648      1651
      1643      1642      1645      1646      1643      1642      1645      1647
      1643      1642      1645      1648      1644      1642      1645      1646
      1644      1642      1645      1647      1644      1642      1645      1648
      1645      1648      1651      1652      1645      1648      1651      1653
      1645      1648      1651      1654      1646      1645      1648      1649
      1646      1645      1648      1650      1646      1645      1648      1651
      1647      1645      1648      1649      1647      1645      1648      1650
      1647      1645      1648      1651      1648      1651      1654      1655
      1648      1651      1654      1656      1648      1651      1654      1657
      1649      1648      1651      1652      1649      1648      1651      1653
      1649      1648      1651      1654      1650      1648      1651      1652
      1650      1648      1651      1653      1650      1648      1651      1654
      1651      1654      1657      1658      1651      1654      1657      1659
      1651      1654      1657      1660      1652      1651      1654      1655
      1652      1651      1654      1656      1652      1651      1654      1657
      1653      1651      1654      1655      1653      1651      1654      1656
      1653      1651      1654      1657      1654      1657      1660      1661
      1654      1657      1660      1662      1654      1657      1660      1663
      1655      1654      1657      1658      1655      1654      1657      1659
      1655      1654      1657      1660      1656      1654      1657      1658
      1656      1654      1657      1659      1656      1654      1657      1660
      1657      1660      1663      1664      1657      1660      1663      1665
      1657      1660      1663      1666      1658      1657      1660      1661
      1658      1657      1660      1662      1658      1657      1660      1663
      1659      1657      1660      1661      1659      1657      1660      1662
      1659      1657      1660      1663      1660      1663      1666      1667
      1660      1663      1666      1668      1660      1663      1666      1669
      1661      1660      1663      1664      1661      1660      1663      1665
      1661      1660      1663      1666      1662      1660      1663      1664
      1662      1660      1663      1665      1662      1660      1663      1666
      1663      1666      1669      1670      1663      1666      1669      1671
      1663      1666      1669      1672      1664      1663      1666      1667
      1664      1663      1666      1668      1664      1663      1666      1669
      1665      1663      1666      1667      1665      1663      1666      1668
      1665      1663      1666      1669      1666      1669      1672      1673
      1666      1669      1672      1674      1666      1669      1672      1675
      1667      1666      1669      1670      1667      1666      1669      1671
      1667      1666      1669      1672      1668      1666      1669      1670
      1668      1666      1669      1671      1668      1666      1669      1672
      1669      1672      1675      1676      1669      1672      1675      1677
      1669      1672      1675      1678      1670      1669      1672      1673
      1670      1669      1672      1674      1670      1669      1672      1675
      1671      1669      1672      1673      1671      1669      1672      1674
      1671      1669      1672      1675      1672      1675      1678      1679
      1672      1675      1678      1680      1672      1675      1678      1681
      1673      1672      1675      1676      1673      1672      1675      1677
      1673      1672      1675      1678      1674      1672      1675      1676
      1674      1672      1675      1677      1674      1672      1675      1678
      1675      1678      1681      1682      1675      1678      1681      1683
      1675      1678      1681      1684      1676      1675      1678      1679
      1676      1675      1678      1680      1676      1675      1678      1681
      1677      1675      1678      1679      1677      1675      1678      1680
      1677      1675      1678      1681      1678      1681      1684      1685
      1678      1681      1684      1686      1678      1681      1684      1687
      1679      1678      1681      1682      1679      1678      1681      1683
      1679      1678      1681      1684      1680      1678      1681      1682
      1680      1678      1681      1683      1680      1678      1681      1684
      1681      1684      1687      1688      1681      1684      1687      1689
      1681      1684      1687      1690      1682      1681      1684      1685
      1682      1681      1684      1686      1682      1681      1684      1687
      1683      1681      1684      1685      1683      1681      1684      1686
      1683      1681      1684      1687      1684      1687      1690      1691
      1684      1687      1690      1692      1684      1687      1690      1693
      1685      1684      1687      1688      1685      1684      1687      1689
      1685      1684      1687      1690      1686      1684      1687      1688
      1686      1684      1687      1689      1686      1684      1687      1690
      1687      1690      1693      1694      1687      1690      1693      1695
      1687      1690      1693      1696      1688      1687      1690      1691
      1688      1687      1690      1692      1688      1687      1690      1693
      1689      1687      1690      1691      1689      1687      1690      1692
      1689      1687      1690      1693      1690      1693      1696      1697
      1690      1693      1696      1698      1690      1693      1696      1699
      1691      1690      1693      1694      1691      1690      1693      1695
      1691      1690      1693      1696      1692      1690      1693      1694
      1692      1690      1693      1695      1692      1690      1693      1696
      1693      1696      1699      1700      1693      1696      1699      1701
      1693      1696      1699      1702      1694      1693      1696      1697
      1694      1693      1696      1698      1694      1693      1696      1699
      1695      1693      1696      1697      1695      1693      1696      1698
      1695      1693      1696      1699      1696      1699      1702      1703
      1696      1699      1702      1704      1696      1699      1702      1705
      1697      1696      1699      1700      1697      1696      1699      1701
      1697      1696      1699      1702      1698      1696      1699      1700
      1698      1696      1699      1701      1698      1696      1699      1702
      1699      1702      1705      1706      1699      1702      1705      1707
      1699      1702      1705      1708      1700      1699      1702      1703
      1700      1699      1702      1704      1700      1699      1702      1705
      1701      1699      1702      1703      1701      1699      1702      1704
      1701      1699      1702      1705      1702      1705      1708      1709
      1702      1705      1708      1710      1702      1705      1708      1711
      1703      1702      1705      1706      1703      1702      1705      1707
      1703      1702      1705      1708      1704      1702      1705      1706
      1704      1702      1705      1707      1704      1702      1705      1708
      1705      1708      1711      1712      1705      1708      1711      1713
      1705      1708      1711      1714      1706      1705      1708      1709
      1706      1705      1708      1710      1706      1705      1708      1711
      1707      1705      1708      1709      1707      1705      1708      1710
      1707      1705      1708      1711      1708      1711      1714      1715
      1708      1711      1714      1716      1708      1711      1714      1717
      1709      1708      1711      1712      1709      1708      1711      1713
      1709      1708      1711      1714      1710      1708      1711      1712
      1710      1708      1711      1713      1710      1708      1711      1714
      1711      1714      1717      1718      1711      1714      1717      1719
      1711      1714      1717      1720      1712      1711      1714      1715
      1712      1711      1714      1716      1712      1711      1714      1717
      1713      1711      1714      1715      1713      1711      1714      1716
      1713      1711      1714      1717      1714      1717      1720      1721
      1714      1717      1720      1722      1714      1717      1720      1723
      1715      1714      1717      1718      1715      1714      1717      1719
      1715      1714      1717      1720      1716      1714      1717      1718
      1716      1714      1717      1719      1716      1714      1717      1720
      1717      1720      1723      1724      1717      1720      1723      1725
      1717      1720      1723      1726      1718      1717      1720      1721
      1718      1717      1720      1722      1718      1717      1720      1723
      1719      1717      1720      1721      1719      1717      1720      1722
      1719      1717      1720      1723      1720      1723      1726      1727
      1720      1723      1726      1728      1720      1723      1726      1729
      1721      1720      1723      1724      1721      1720      1723      1725
      1721      1720      1723      1726      1722      1720      1723      1724
      1722      1720      1723      1725      1722      1720      1723      1726
      1723      1726      1729      1730      1723      1726      1729      1731
      1723      1726      1729      1732      1724      1723      1726      1727
      1724      1723      1726      1728      1724      1723      1726      1729
      1725      1723      1726      1727      1725      1723      1726      1728
      1725      1723      1726      1729      1726      1729      1732      1733
      1726      1729      1732      1734      1726      1729      1732      1735
      1727      1726      1729      1730      1727      1726      1729      1731
      1727      1726      1729      1732      1728      1726      1729      1730
      1728      1726      1729      1731      1728      1726      1729      1732
      1729      1732      1735      1736      1729      1732      1735      1737
      1729      1732      1735      1738      1730      1729      1732      1733
      1730      1729      1732      1734      1730      1729      1732      1735
      1731      1729      1732      1733      1731      1729      1732      1734
      1731      1729      1732      1735      1732      1735      1738      1739
      1732      1735      1738      1740      1732      1735      1738      1741
      1733      1732      1735      1736      1733      1732      1735      1737
      1733      1732      1735      1738      1734      1732      1735      1736
      1734      1732      1735      1737      1734      1732      1735      1738
      1735      1738      1741      1742      1735      1738      1741      1743
      1735      1738      1741      1744      1736      1735      1738      1739
      1736      1735      1738      1740      1736      1735      1738      1741
      1737      1735      1738      1739      1737      1735      1738      1740
      1737      1735      1738      1741      1738      1741      1744      1745
      1738      1741      1744      1746      1738      1741      1744      1747
      1739      1738      1741      1742      1739      1738      1741      1743
      1739      1738      1741      1744      1740      1738      1741      1742
      1740      1738      1741      1743      1740      1738      1741      1744
      1741      1744      1747      1748      1741      1744      1747      1749
      1741      1744      1747      1750      1742      1741      1744      1745
      1742      1741      1744      1746      1742      1741      1744      1747
      1743      1741      1744      1745      1743      1741      1744      1746
      1743      1741      1744      1747      1744      1747      1750      1751
      1744      1747      1750      1752      1744      1747      1750      1753
      1745      1744      1747      1748      1745      1744      1747      1749
      1745      1744      1747      1750      1746      1744      1747      1748
      1746      1744      1747      1749      1746      1744      1747      1750
      1747      1750      1753      1754      1747      1750      1753      1755
      1747      1750      1753      1756      1748      1747      1750      1751
      1748      1747      1750      1752      1748      1747      1750      1753
      1749      1747      1750      1751      1749      1747      1750      1752
      1749      1747      1750      1753      1750      1753      1756      1757
      1750      1753      1756      1758      1750      1753      1756      1759
      1751      1750      1753      1754      1751      1750      1753      1755
      1751      1750      1753      1756      1752      1750      1753      1754
      1752      1750      1753      1755      1752      1750      1753      1756
      1753      1756      1759      1760      1753      1756      1759      1761
      1753      1756      1759      1762      1754      1753      1756      1757
      1754      1753      1756      1758      1754      1753      1756      1759
      1755      1753      1756      1757      1755      1753      1756      1758
      1755      1753      1756      1759      1756      1759      1762      1763
      1756      1759      1762      1764      1756      1759      1762      1765
      1757      1756      1759      1760      1757      1756      1759      1761
      1757      1756      1759      1762      1758      1756      1759      1760
      1758      1756      1759      1761      1758      1756      1759      1762
      1759      1762      1765      1766      1759      1762      1765      1767
      1759      1762      1765      1768      1760      1759      1762      1763
      1760      1759      1762      1764      1760      1759      1762      1765
      1761      1759      1762      1763      1761      1759      1762      1764
      1761      1759      1762      1765      1762      1765      1768      1769
      1762      1765      1768      1770      1762      1765      1768      1771
      1763      1762      1765      1766      1763      1762      1765      1767
      1763      1762      1765      1768      1764      1762      1765      1766
      1764      1762      1765      1767      1764      1762      1765      1768
      1765      1768      1771      1772      1765      1768      1771      1773
      1765      1768      1771      1774      1766      1765      1768      1769
      1766      1765      1768      1770      1766      1765      1768      1771
      1767      1765      1768      1769      1767      1765      1768      1770
      1767      1765      1768      1771      1768      1771      1774      1775
      1768      1771      1774      1776      1768      1771      1774      1777
      1769      1768      1771      1772      1769      1768      1771      1773
      1769      1768      1771      1774      1770      1768      1771      1772
      1770      1768      1771      1773      1770      1768      1771      1774
      1771      1774      1777      1778      1771      1774      1777      1779
      1771      1774      1777      1780      1772      1771      1774      1775
      1772      1771      1774      1776      1772      1771      1774      1777
      1773      1771      1774      1775      1773      1771      1774      1776
      1773      1771      1774      1777      1774      1777      1780      1781
      1774      1777      1780      1782      1774      1777      1780      1783
      1775      1774      1777      1778      1775      1774      1777      1779
      1775      1774      1777      1780      1776      1774      1777      1778
      1776      1774      1777      1779      1776      1774      1777      1780
      1777      1780      1783      1784      1777      1780      1783      1785
      1777      1780      1783      1786      1778      1777      1780      1781
      1778      1777      1780      1782      1778      1777      1780      1783
      1779      1777      1780      1781      1779      1777      1780      1782
      1779      1777      1780      1783      1780      1783      1786      1787
      1780      1783      1786      1788      1780      1783      1786      1789
      1781      1780      1783      1784      1781      1780      1783      1785
      1781      1780      1783      1786      1782      1780      1783      1784
      1782      1780      1783      1785      1782      1780      1783      1786
      1783      1786      1789      1790      1783      1786      1789      1791
      1783      1786      1789      1792      1784      1783      1786      1787
      1784      1783      1786      1788      1784      1783      1786      1789
      1785      1783      1786      1787      1785      1783      1786      1788
      1785      1783      1786      1789      1786      1789      1792      1793
      1786      1789      1792      1794      1786      1789      1792      1795
      1787      1786      1789      1790      1787      1786      1789      1791
      1787      1786      1789      1792      1788      1786      1789      1790
      1788      1786      1789      1791      1788      1786      1789      1792
      1789      1792      1795      1796      1789      1792      1795      1797
      1789      1792      1795      1798      1790      1789      1792      1793
      1790      1789      1792      1794      1790      1789      1792      1795
      1791      1789      1792      1793      1791      1789      1792      1794
      1791      1789      1792      1795      1792      1795      1798      1799
      1792      1795      1798      1800      1792      1795      1798      1801
      1793      1792      1795      1796      1793      1792      1795      1797
      1793      1792      1795      1798      1794      1792      1795      1796
      1794      1792      1795      1797      1794      1792      1795      1798
      1795      1798      1801      1802      1795      1798      1801      1803
      1795      1798      1801      1804      1796      1795      1798      1799
      1796      1795      1798      1800      1796      1795      1798      1801
      1797      1795      1798      1799      1797      1795      1798      1800
      1797      1795      1798      1801      1798      1801      1804      1805
      1798      1801      1804      1806      1798      1801      1804      1807
      1799      1798      1801      1802      1799      1798      1801      1803
      1799      1798      1801      1804      1800      1798      1801      1802
      1800      1798      1801      1803      1800      1798      1801      1804
      1801      1804      1807      1808      1801      1804      1807      1809
      1801      1804      1807      1810      1802      1801      1804      1805
      1802      1801      1804      1806      1802      1801      1804      1807
      1803      1801      1804      1805      1803      1801      1804      1806
      1803      1801      1804      1807      1805      1804      1807      1808
      1805      1804      1807      1809      1805      1804      1807      1810
      1806      1804      1807      1808      1806      1804      1807      1809
      1806      1804      1807      1810      1811      1815      1818      1819
      1811      1815      1818      1820      1811      1815      1818      1821
      1812      1811      1815      1816      1812      1811      1815      1817
      1812      1811      1815      1818      1813      1811      1815      1816
      1813      1811      1815      1817      1813      1811      1815      1818
      1814      1811      1815      1816      1814      1811      1815      1817
      1814      1811      1815      1818      1815      1818      1821      1822
      1815      1818      1821      1823      1815      1818      1821      1824
      1816      1815      1818      1819      1816      1815      1818      1820
      1816      1815      1818      1821      1817      1815      1818      1819
      1817      1815      1818      1820      1817      1815      1818      1821
      1818      1821      1824      1825      1818      1821      1824      1826
      1818      1821      1824      1827      1819      1818      1821      1822
      1819      1818      1821      1823      1819      1818      1821      1824
      1820      1818      1821      1822      1820      1818      1821      1823
      1820      1818      1821      1824      1821      1824      1827      1828
      1821      1824      1827      1829      1821      1824      1827      1830
      1822      1821      1824      1825      1822      1821      1824      1826
      1822      1821      1824      1827      1823      1821      1824      1825
      1823      1821      1824      1826      1823      1821      1824      1827
      1824      1827      1830      1831      1824      1827      1830      1832
      1824      1827      1830      1833      1825      1824      1827      1828
      1825      1824      1827      1829      1825      1824      1827      1830
      1826      1824      1827      1828      1826      1824      1827      1829
      1826      1824      1827      1830      1827      1830      1833      1834
      1827      1830      1833      1835      1827      1830      1833      1836
      1828      1827      1830      1831      1828      1827      1830      1832
      1828      1827      1830      1833      1829      1827      1830      1831
      1829      1827      1830      1832      1829      1827      1830      1833
      1830      1833      1836      1837      1830      1833      1836      1838
      1830      1833      1836      1839      1831      1830      1833      1834
      1831      1830      1833      1835      1831      1830      1833      1836
      1832      1830      1833      1834      1832      1830      1833      1835
      1832      1830      1833      1836      1833      1836      1839      1840
      1833      1836      1839      1841      1833      1836      1839      1842
      1834      1833      1836      1837      1834      1833      1836      1838
      1834      1833      1836      1839      1835      1833      1836      1837
      1835      1833      1836      1838      1835      1833      1836      1839
      1836      1839      1842      1843      1836      1839      1842      1844
      1836      1839      1842      1845      1837      1836      1839      1840
      1837      1836      1839      1841      1837      1836      1839      1842
      1838      1836      1839      1840      1838      1836      1839      1841
      1838      1836      1839      1842      1839      1842      1845      1846
      1839      1842      1845      1847      1839      1842      1845      1848
      1840      1839      1842      1843      1840      1839      1842      1844
      1840      1839      1842      1845      1841      1839      1842      1843
      1841      1839      1842      1844      1841      1839      1842      1845
      1842      1845      1848      1849      1842      1845      1848      1850
      1842      1845      1848      1851      1843      1842      1845      1846
      1843      1842      1845      1847      1843      1842      1845      1848
      1844      1842      1845      1846      1844      1842      1845      1847
      1844      1842      1845      1848      1845      1848      1851      1852
      1845      1848      1851      1853      1845      1848      1851      1854
      1846      1845      1848      1849      1846      1845      1848      1850
      1846      1845      1848      1851      1847      1845      1848      1849
      1847      1845      1848      1850      1847      1845      1848      1851
      1848      1851      1854      1855      1848      1851      1854      1856
      1848      1851      1854      1857      1849      1848      1851      1852
      1849      1848      1851      1853      1849      1848      1851      1854
      1850      1848      1851      1852      1850      1848      1851      1853
      1850      1848      1851      1854      1851      1854      1857      1858
      1851      1854      1857      1859      1851      1854      1857      1860
      1852      1851      1854      1855      1852      1851      1854      1856
      1852      1851      1854      1857      1853      1851      1854      1855
      1853      1851      1854      1856      1853      1851      1854      1857
      1854      1857      1860      1861      1854      1857      1860      1862
      1854      1857      1860      1863      1855      1854      1857      1858
      1855      1854      1857      1859      1855      1854      1857      1860
      1856      1854      1857      1858      1856      1854      1857      1859
      1856      1854      1857      1860      1857      1860      1863      1864
      1857      1860      1863      1865      1857      1860      1863      1866
      1858      1857      1860      1861      1858      1857      1860      1862
      1858      1857      1860      1863      1859      1857      1860      1861
      1859      1857      1860      1862      1859      1857      1860      1863
      1860      1863      1866      1867      1860      1863      1866      1868
      1860      1863      1866      1869      1861      1860      1863      1864
      1861      1860      1863      1865      1861      1860      1863      1866
      1862      1860      1863      1864      1862      1860      1863      1865
      1862      1860      1863      1866      1863      1866      1869      1870
      1863      1866      1869      1871      1863      1866      1869      1872
      1864      1863      1866      1867      1864      1863      1866      1868
      1864      1863      1866      1869      1865      1863      1866      1867
      1865      1863      1866      1868      1865      1863      1866      1869
      1866      1869      1872      1873      1866      1869      1872      1874
      1866      1869      1872      1875      1867      1866      1869      1870
      1867      1866      1869      1871      1867      1866      1869      1872
      1868      1866      1869      1870      1868      1866      1869      1871
      1868      1866      1869      1872      1869      1872      1875      1876
      1869      1872      1875      1877      1869      1872      1875      1878
      1870      1869      1872      1873      1870      1869      1872      1874
      1870      1869      1872      1875      1871      1869      1872      1873
      1871      1869      1872      1874      1871      1869      1872      1875
      1872      1875      1878      1879      1872      1875      1878      1880
      1872      1875      1878      1881      1873      1872      1875      1876
      1873      1872      1875      1877      1873      1872      1875      1878
      1874      1872      1875      1876      1874      1872      1875      1877
      1874      1872      1875      1878      1875      1878      1881      1882
      1875      1878      1881      1883      1875      1878      1881      1884
      1876      1875      1878      1879      1876      1875      1878      1880
      1876      1875      1878      1881      1877      1875      1878      1879
      1877      1875      1878      1880      1877      1875      1878      1881
      1878      1881      1884      1885      1878      1881      1884      1886
      1878      1881      1884      1887      1879      1878      1881      1882
      1879      1878      1881      1883      1879      1878      1881      1884
      1880      1878      1881      1882      1880      1878      1881      1883
      1880      1878      1881      1884      1881      1884      1887      1888
      1881      1884      1887      1889      1881      1884      1887      1890
      1882      1881      1884      1885      1882      1881      1884      1886
      1882      1881      1884      1887      1883      1881      1884      1885
      1883      1881      1884      1886      1883      1881      1884      1887
      1884      1887      1890      1891      1884      1887      1890      1892
      1884      1887      1890      1893      1885      1884      1887      1888
      1885      1884      1887      1889      1885      1884      1887      1890
      1886      1884      1887      1888      1886      1884      1887      1889
      1886      1884      1887      1890      1887      1890      1893      1894
      1887      1890      1893      1895      1887      1890      1893      1896
      1888      1887      1890      1891      1888      1887      1890      1892
      1888      1887      1890      1893      1889      1887      1890      1891
      1889      1887      1890      1892      1889      1887      1890      1893
      1890      1893      1896      1897      1890      1893      1896      1898
      1890      1893      1896      1899      1891      1890      1893      1894
      1891      1890      1893      1895      1891      1890      1893      1896
      1892      1890      1893      1894      1892      1890      1893      1895
      1892      1890      1893      1896      1893      1896      1899      1900
      1893      1896      1899      1901      1893      1896      1899      1902
      1894      1893      1896      1897      1894      1893      1896      1898
      1894      1893      1896      1899      1895      1893      1896      1897
      1895      1893      1896      1898      1895      1893      1896      1899
      1896      1899      1902      1903      1896      1899      1902      1904
      1896      1899      1902      1905      1897      1896      1899      1900
      1897      1896      1899      1901      1897      1896      1899      1902
      1898      1896      1899      1900      1898      1896      1899      1901
      1898      1896      1899      1902      1899      1902      1905      1906
      1899      1902      1905      1907      1899      1902      1905      1908
      1900      1899      1902      1903      1900      1899      1902      1904
      1900      1899      1902      1905      1901      1899      1902      1903
      1901      1899      1902      1904      1901      1899      1902      1905
      1902      1905      1908      1909      1902      1905      1908      1910
      1902      1905      1908      1911      1903      1902      1905      1906
      1903      1902      1905      1907      1903      1902      1905      1908
      1904      1902      1905      1906      1904      1902      1905      1907
      1904      1902      1905      1908      1905      1908      1911      1912
      1905      1908      1911      1913      1905      1908      1911      1914
      1906      1905      1908      1909      1906      1905      1908      1910
      1906      1905      1908      1911      1907      1905      1908      1909
      1907      1905      1908      1910      1907      1905      1908      1911
      1908      1911      1914      1915      1908      1911      1914      1916
      1908      1911      1914      1917      1909      1908      1911      1912
      1909      1908      1911      1913      1909      1908      1911      1914
      1910      1908      1911      1912      1910      1908      1911      1913
      1910      1908      1911      1914      1911      1914      1917      1918
      1911      1914      1917      1919      1911      1914      1917      1920
      1912      1911      1914      1915      1912      1911      1914      1916
      1912      1911      1914      1917      1913      1911      1914      1915
      1913      1911      1914      1916      1913      1911      1914      1917
      1914      1917      1920      1921      1914      1917      1920      1922
      1914      1917      1920      1923      1915      1914      1917      1918
      1915      1914      1917      1919      1915      1914      1917      1920
      1916      1914      1917      1918      1916      1914      1917      1919
      1916      1914      1917      1920      1917      1920      1923      1924
      1917      1920      1923      1925      1917      1920      1923      1926
      1918      1917      1920      1921      1918      1917      1920      1922
      1918      1917      1920      1923      1919      1917      1920      1921
      1919      1917      1920      1922      1919      1917      1920      1923
      1920      1923      1926      1927      1920      1923      1926      1928
      1920      1923      1926      1929      1921      1920      1923      1924
      1921      1920      1923      1925      1921      1920      1923      1926
      1922      1920      1923      1924      1922      1920      1923      1925
      1922      1920      1923      1926      1923      1926      1929      1930
      1923      1926      1929      1931      1923      1926      1929      1932
      1924      1923      1926      1927      1924      1923      1926      1928
      1924      1923      1926      1929      1925      1923      1926      1927
      1925      1923      1926      1928      1925      1923      1926      1929
      1926      1929      1932      1933      1926      1929      1932      1934
      1926      1929      1932      1935      1927      1926      1929      1930
      1927      1926      1929      1931      1927      1926      1929      1932
      1928      1926      1929      1930      1928      1926      1929      1931
      1928      1926      1929      1932      1929      1932      1935      1936
      1929      1932      1935      1937      1929      1932      1935      1938
      1930      1929      1932      1933      1930      1929      1932      1934
      1930      1929      1932      1935      1931      1929      1932      1933
      1931      1929      1932      1934      1931      1929      1932      1935
      1932      1935      1938      1939      1932      1935      1938      1940
      1932      1935      1938      1941      1933      1932      1935      1936
      1933      1932      1935      1937      1933      1932      1935      1938
      1934      1932      1935      1936      1934      1932      1935      1937
      1934      1932      1935      1938      1935      1938      1941      1942
      1935      1938      1941      1943      1935      1938      1941      1944
      1936      1935      1938      1939      1936      1935      1938      1940
      1936      1935      1938      1941      1937      1935      1938      1939
      1937      1935      1938      1940      1937      1935      1938      1941
      1938      1941      1944      1945      1938      1941      1944      1946
      1938      1941      1944      1947      1939      1938      1941      1942
      1939      1938      1941      1943      1939      1938      1941      1944
      1940      1938      1941      1942      1940      1938      1941      1943
      1940      1938      1941      1944      1941      1944      1947      1948
      1941      1944      1947      1949      1941      1944      1947      1950
      1942      1941      1944      1945      1942      1941      1944      1946
      1942      1941      1944      1947      1943      1941      1944      1945
      1943      1941      1944      1946      1943      1941      1944      1947
      1944      1947      1950      1951      1944      1947      1950      1952
      1944      1947      1950      1953      1945      1944      1947      1948
      1945      1944      1947      1949      1945      1944      1947      1950
      1946      1944      1947      1948      1946      1944      1947      1949
      1946      1944      1947      1950      1947      1950      1953      1954
      1947      1950      1953      1955      1947      1950      1953      1956
      1948      1947      1950      1951      1948      1947      1950      1952
      1948      1947      1950      1953      1949      1947      1950      1951
      1949      1947      1950      1952      1949      1947      1950      1953
      1950      1953      1956      1957      1950      1953      1956      1958
      1950      1953      1956      1959      1951      1950      1953      1954
      1951      1950      1953      1955      1951      1950      1953      1956
      1952      1950      1953      1954      1952      1950      1953      1955
      1952      1950      1953      1956      1953      1956      1959      1960
      1953      1956      1959      1961      1953      1956      1959      1962
      1954      1953      1956      1957      1954      1953      1956      1958
      1954      1953      1956      1959      1955      1953      1956      1957
      1955      1953      1956      1958      1955      1953      1956      1959
      1956      1959      1962      1963      1956      1959      1962      1964
      1956      1959      1962      1965      1957      1956      1959      1960
      1957      1956      1959      1961      1957      1956      1959      1962
      1958      1956      1959      1960      1958      1956      1959      1961
      1958      1956      1959      1962      1959      1962      1965      1966
      1959      1962      1965      1967      1959      1962      1965      1968
      1960      1959      1962      1963      1960      1959      1962      1964
      1960      1959      1962      1965      1961      1959      1962      1963
      1961      1959      1962      1964      1961      1959      1962      1965
      1962      1965      1968      1969      1962      1965      1968      1970
      1962      1965      1968      1971      1963      1962      1965      1966
      1963      1962      1965      1967      1963      1962      1965      1968
      1964      1962      1965      1966      1964      1962      1965      1967
      1964      1962      1965      1968      1965      1968      1971      1972
      1965      1968      1971      1973      1965      1968      1971      1974
      1966      1965      1968      1969      1966      1965      1968      1970
      1966      1965      1968      1971      1967      1965      1968      1969
      1967      1965      1968      1970      1967      1965      1968      1971
      1968      1971      1974      1975      1968      1971      1974      1976
      1968      1971      1974      1977      1969      1968      1971      1972
      1969      1968      1971      1973      1969      1968      1971      1974
      1970      1968      1971      1972      1970      1968      1971      1973
      1970      1968      1971      1974      1971      1974      1977      1978
      1971      1974      1977      1979      1971      1974      1977      1980
      1972      1971      1974      1975      1972      1971      1974      1976
      1972      1971      1974      1977      1973      1971      1974      1975
      1973      1971      1974      1976      1973      1971      1974      1977
      1974      1977      1980      1981      1974      1977      1980      1982
      1974      1977      1980      1983      1975      1974      1977      1978
      1975      1974      1977      1979      1975      1974      1977      1980
      1976      1974      1977      1978      1976      1974      1977      1979
      1976      1974      1977      1980      1977      1980      1983      1984
      1977      1980      1983      1985      1977      1980      1983      1986
      1978      1977      1980      1981      1978      1977      1980      1982
      1978      1977      1980      1983      1979      1977      1980      1981
      1979      1977      1980      1982      1979      1977      1980      1983
      1980      1983      1986      1987      1980      1983      1986      1988
      1980      1983      1986      1989      1981      1980      1983      1984
      1981      1980      1983      1985      1981      1980      1983      1986
      1982      1980      1983      1984      1982      1980      1983      1985
      1982      1980      1983      1986      1983      1986      1989      1990
      1983      1986      1989      1991      1983      1986      1989      1992
      1984      1983      1986      1987      1984      1983      1986      1988
      1984      1983      1986      1989      1985      1983      1986      1987
      1985      1983      1986      1988      1985      1983      1986      1989
      1986      1989      1992      1993      1986      1989      1992      1994
      1986      1989      1992      1995      1987      1986      1989      1990
      1987      1986      1989      1991      1987      1986      1989      1992
      1988      1986      1989      1990      1988      1986      1989      1991
      1988      1986      1989      1992      1989      1992      1995      1996
      1989      1992      1995      1997      1989      1992      1995      1998
      1990      1989      1992      1993      1990      1989      1992      1994
      1990      1989      1992      1995      1991      1989      1992      1993
      1991      1989      1992      1994      1991      1989      1992      1995
      1992      1995      1998      1999      1992      1995      1998      2000
      1992      1995      1998      2001      1993      1992      1995      1996
      1993      1992      1995      1997      1993      1992      1995      1998
      1994      1992      1995      1996      1994      1992      1995      1997
      1994      1992      1995      1998      1995      1998      2001      2002
      1995      1998      2001      2003      1995      1998      2001      2004
      1996      1995      1998      1999      1996      1995      1998      2000
      1996      1995      1998      2001      1997      1995      1998      1999
      1997      1995      1998      2000      1997      1995      1998      2001
      1998      2001      2004      2005      1998      2001      2004      2006
      1998      2001      2004      2007      1999      1998      2001      2002
      1999      1998      2001      2003      1999      1998      2001      2004
      2000      1998      2001      2002      2000      1998      2001      2003
      2000      1998      2001      2004      2001      2004      2007      2008
      2001      2004      2007      2009      2001      2004      2007      2010
      2002      2001      2004      2005      2002      2001      2004      2006
      2002      2001      2004      2007      2003      2001      2004      2005
      2003      2001      2004      2006      2003      2001      2004      2007
      2004      2007      2010      2011      2004      2007      2010      2012
      2004      2007      2010      2013      2005      2004      2007      2008
      2005      2004      2007      2009      2005      2004      2007      2010
      2006      2004      2007      2008      2006      2004      2007      2009
      2006      2004      2007      2010      2007      2010      2013      2014
      2007      2010      2013      2015      2007      2010      2013      2016
      2008      2007      2010      2011      2008      2007      2010      2012
      2008      2007      2010      2013      2009      2007      2010      2011
      2009      2007      2010      2012      2009      2007      2010      2013
      2010      2013      2016      2017      2010      2013      2016      2018
      2010      2013      2016      2019      2011      2010      2013      2014
      2011      2010      2013      2015      2011      2010      2013      2016
      2012      2010      2013      2014      2012      2010      2013      2015
      2012      2010      2013      2016      2013      2016      2019      2020
      2013      2016      2019      2021      2013      2016      2019      2022
      2014      2013      2016      2017      2014      2013      2016      2018
      2014      2013      2016      2019      2015      2013      2016      2017
      2015      2013      2016      2018      2015      2013      2016      2019
      2016      2019      2022      2023      2016      2019      2022      2024
      2016      2019      2022      2025      2017      2016      2019      2020
      2017      2016      2019      2021      2017      2016      2019      2022
      2018      2016      2019      2020      2018      2016      2019      2021
      2018      2016      2019      2022      2019      2022      2025      2026
      2019      2022      2025      2027      2019      2022      2025      2028
      2020      2019      2022      2023      2020      2019      2022      2024
      2020      2019      2022      2025      2021      2019      2022      2023
      2021      2019      2022      2024      2021      2019      2022      2025
      2022      2025      2028      2029      2022      2025      2028      2030
      2022      2025      2028      2031      2023      2022      2025      2026
      2023      2022      2025      2027      2023      2022      2025      2028
      2024      2022      2025      2026      2024      2022      2025      2027
      2024      2022      2025      2028      2025      2028      2031      2032
      2025      2028      2031      2033      2025      2028      2031      2034
      2026      2025      2028      2029      2026      2025      2028      2030
      2026      2025      2028      2031      2027      2025      2028      2029
      2027      2025      2028      2030      2027      2025      2028      2031
      2028      2031      2034      2035      2028      2031      2034      2036
      2028      2031      2034      2037      2029      2028      2031      2032
      2029      2028      2031      2033      2029      2028      2031      2034
      2030      2028      2031      2032      2030      2028      2031      2033
      2030      2028      2031      2034      2031      2034      2037      2038
      2031      2034      2037      2039      2031      2034      2037      2040
      2032      2031      2034      2035      2032      2031      2034      2036
      2032      2031      2034      2037      2033      2031      2034      2035
      2033      2031      2034      2036      2033      2031      2034      2037
      2034      2037      2040      2041      2034      2037      2040      2042
      2034      2037      2040      2043      2035      2034      2037      2038
      2035      2034      2037      2039      2035      2034      2037      2040
      2036      2034      2037      2038      2036      2034      2037      2039
      2036      2034      2037      2040      2037      2040      2043      2044
      2037      2040      2043      2045      2037      2040      2043      2046
      2038      2037      2040      2041      2038      2037      2040      2042
      2038      2037      2040      2043      2039      2037      2040      2041
      2039      2037      2040      2042      2039      2037      2040      2043
      2040      2043      2046      2047      2040      2043      2046      2048
      2040      2043      2046      2049      2041      2040      2043      2044
      2041      2040      2043      2045      2041      2040      2043      2046
      2042      2040      2043      2044      2042      2040      2043      2045
      2042      2040      2043      2046      2043      2046      2049      2050
      2043      2046      2049      2051      2043      2046      2049      2052
      2044      2043      2046      2047      2044      2043      2046      2048
      2044      2043      2046      2049      2045      2043      2046      2047
      2045      2043      2046      2048      2045      2043      2046      2049
      2046      2049      2052      2053      2046      2049      2052      2054
      2046      2049      2052      2055      2047      2046      2049      2050
      2047      2046      2049      2051      2047      2046      2049      2052
      2048      2046      2049      2050      2048      2046      2049      2051
      2048      2046      2049      2052      2049      2052      2055      2056
      2049      2052      2055      2057      2049      2052      2055      2058
      2050      2049      2052      2053      2050      2049      2052      2054
      2050      2049      2052      2055      2051      2049      2052      2053
      2051      2049      2052      2054      2051      2049      2052      2055
      2052      2055      2058      2059      2052      2055      2058      2060
      2052      2055      2058      2061      2053      2052      2055      2056
      2053      2052      2055      2057      2053      2052      2055      2058
      2054      2052      2055      2056      2054      2052      2055      2057
      2054      2052      2055      2058      2055      2058      2061      2062
      2055      2058      2061      2063      2055      2058      2061      2064
      2056      2055      2058      2059      2056      2055      2058      2060
      2056      2055      2058      2061      2057      2055      2058      2059
      2057      2055      2058      2060      2057      2055      2058      2061
      2058      2061      2064      2065      2058      2061      2064      2066
      2058      2061      2064      2067      2059      2058      2061      2062
      2059      2058      2061      2063      2059      2058      2061      2064
      2060      2058      2061      2062      2060      2058      2061      2063
      2060      2058      2061      2064      2061      2064      2067      2068
      2061      2064      2067      2069      2061      2064      2067      2070
      2062      2061      2064      2065      2062      2061      2064      2066
      2062      2061      2064      2067      2063      2061      2064      2065
      2063      2061      2064      2066      2063      2061      2064      2067
      2064      2067      2070      2071      2064      2067      2070      2072
      2064      2067      2070      2073      2065      2064      2067      2068
      2065      2064      2067      2069      2065      2064      2067      2070
      2066      2064      2067      2068      2066      2064      2067      2069
      2066      2064      2067      2070      2067      2070      2073      2074
      2067      2070      2073      2075      2067      2070      2073      2076
      2068      2067      2070      2071      2068      2067      2070      2072
      2068      2067      2070      2073      2069      2067      2070      2071
      2069      2067      2070      2072      2069      2067      2070      2073
      2070      2073      2076      2077      2070      2073      2076      2078
      2070      2073      2076      2079      2071      2070      2073      2074
      2071      2070      2073      2075      2071      2070      2073      2076
      2072      2070      2073      2074      2072      2070      2073      2075
      2072      2070      2073      2076      2073      2076      2079      2080
      2073      2076      2079      2081      2073      2076      2079      2082
      2074      2073      2076      2077      2074      2073      2076      2078
      2074      2073      2076      2079      2075      2073      2076      2077
      2075      2073      2076      2078      2075      2073      2076      2079
      2076      2079      2082      2083      2076      2079      2082      2084
      2076      2079      2082      2085      2077      2076      2079      2080
      2077      2076      2079      2081      2077      2076      2079      2082
      2078      2076      2079      2080      2078      2076      2079      2081
      2078      2076      2079      2082      2079      2082      2085      2086
      2079      2082      2085      2087      2079      2082      2085      2088
      2080      2079      2082      2083      2080      2079      2082      2084
      2080      2079      2082      2085      2081      2079      2082      2083
      2081      2079      2082      2084      2081      2079      2082      2085
      2082      2085      2088      2089      2082      2085      2088      2090
      2082      2085      2088      2091      2083      2082      2085      2086
      2083      2082      2085      2087      2083      2082      2085      2088
      2084      2082      2085      2086      2084      2082      2085      2087
      2084      2082      2085      2088      2085      2088      2091      2092
      2085      2088      2091      2093      2085      2088      2091      2094
      2086      2085      2088      2089      2086      2085      2088      2090
      2086      2085      2088      2091      2087      2085      2088      2089
      2087      2085      2088      2090      2087      2085      2088      2091
      2088      2091      2094      2095      2088      2091      2094      2096
      2088      2091      2094      2097      2089      2088      2091      2092
      2089      2088      2091      2093      2089      2088      2091      2094
      2090      2088      2091      2092      2090      2088      2091      2093
      2090      2088      2091      2094      2091      2094      2097      2098
      2091      2094      2097      2099      2091      2094      2097      2100
      2092      2091      2094      2095      2092      2091      2094      2096
      2092      2091      2094      2097      2093      2091      2094      2095
      2093      2091      2094      2096      2093      2091      2094      2097
      2094      2097      2100      2101      2094      2097      2100      2102
      2094      2097      2100      2103      2095      2094      2097      2098
      2095      2094      2097      2099      2095      2094      2097      2100
      2096      2094      2097      2098      2096      2094      2097      2099
      2096      2094      2097      2100      2097      2100      2103      2104
      2097      2100      2103      2105      2097      2100      2103      2106
      2098      2097      2100      2101      2098      2097      2100      2102
      2098      2097      2100      2103      2099      2097      2100      2101
      2099      2097      2100      2102      2099      2097      2100      2103
      2100      2103      2106      2107      2100      2103      2106      2108
      2100      2103      2106      2109      2101      2100      2103      2104
      2101      2100      2103      2105      2101      2100      2103      2106
      2102      2100      2103      2104      2102      2100      2103      2105
      2102      2100      2103      2106      2103      2106      2109      2110
      2103      2106      2109      2111      2103      2106      2109      2112
      2104      2103      2106      2107      2104      2103      2106      2108
      2104      2103      2106      2109      2105      2103      2106      2107
      2105      2103      2106      2108      2105      2103      2106      2109
      2106      2109      2112      2113      2106      2109      2112      2114
      2106      2109      2112      2115      2107      2106      2109      2110
      2107      2106      2109      2111      2107      2106      2109      2112
      2108      2106      2109      2110      2108      2106      2109      2111
      2108      2106      2109      2112      2109      2112      2115      2116
      2109      2112      2115      2117      2109      2112      2115      2118
      2110      2109      2112      2113      2110      2109      2112      2114
      2110      2109      2112      2115      2111      2109      2112      2113
      2111      2109      2112      2114      2111      2109      2112      2115
      2112      2115      2118      2119      2112      2115      2118      2120
      2112      2115      2118      2121      2113      2112      2115      2116
      2113      2112      2115      2117      2113      2112      2115      2118
      2114      2112      2115      2116      2114      2112      2115      2117
      2114      2112      2115      2118      2115      2118      2121      2122
      2115      2118      2121      2123      2115      2118      2121      2124
      2116      2115      2118      2119      2116      2115      2118      2120
      2116      2115      2118      2121      2117      2115      2118      2119
      2117      2115      2118      2120      2117      2115      2118      2121
      2118      2121      2124      2125      2118      2121      2124      2126
      2118      2121      2124      2127      2119      2118      2121      2122
      2119      2118      2121      2123      2119      2118      2121      2124
      2120      2118      2121      2122      2120      2118      2121      2123
      2120      2118      2121      2124      2121      2124      2127      2128
      2121      2124      2127      2129      2121      2124      2127      2130
      2122      2121      2124      2125      2122      2121      2124      2126
      2122      2121      2124      2127      2123      2121      2124      2125
      2123      2121      2124      2126      2123      2121      2124      2127
      2124      2127      2130      2131      2124      2127      2130      2132
      2124      2127      2130      2133      2125      2124      2127      2128
      2125      2124      2127      2129      2125      2124      2127      2130
      2126      2124      2127      2128      2126      2124      2127      2129
      2126      2124      2127      2130      2127      2130      2133      2134
      2127      2130      2133      2135      2127      2130      2133      2136
      2128      2127      2130      2131      2128      2127      2130      2132
      2128      2127      2130      2133      2129      2127      2130      2131
      2129      2127      2130      2132      2129      2127      2130      2133
      2130      2133      2136      2137      2130      2133      2136      2138
      2130      2133      2136      2139      2131      2130      2133      2134
      2131      2130      2133      2135      2131      2130      2133      2136
      2132      2130      2133      2134      2132      2130      2133      2135
      2132      2130      2133      2136      2133      2136      2139      2140
      2133      2136      2139      2141      2133      2136      2139      2142
      2134      2133      2136      2137      2134      2133      2136      2138
      2134      2133      2136      2139      2135      2133      2136      2137
      2135      2133      2136      2138      2135      2133      2136      2139
      2136      2139      2142      2143      2136      2139      2142      2144
      2136      2139      2142      2145      2137      2136      2139      2140
      2137      2136      2139      2141      2137      2136      2139      2142
      2138      2136      2139      2140      2138      2136      2139      2141
      2138      2136      2139      2142      2139      2142      2145      2146
      2139      2142      2145      2147      2139      2142      2145      2148
      2140      2139      2142      2143      2140      2139      2142      2144
      2140      2139      2142      2145      2141      2139      2142      2143
      2141      2139      2142      2144      2141      2139      2142      2145
      2142      2145      2148      2149      2142      2145      2148      2150
      2142      2145      2148      2151      2143      2142      2145      2146
      2143      2142      2145      2147      2143      2142      2145      2148
      2144      2142      2145      2146      2144      2142      2145      2147
      2144      2142      2145      2148      2145      2148      2151      2152
      2145      2148      2151      2153      2145      2148      2151      2154
      2146      2145      2148      2149      2146      2145      2148      2150
      2146      2145      2148      2151      2147      2145      2148      2149
      2147      2145      2148      2150      2147      2145      2148      2151
      2148      2151      2154      2155      2148      2151      2154      2156
      2148      2151      2154      2157      2149      2148      2151      2152
      2149      2148      2151      2153      2149      2148      2151      2154
      2150      2148      2151      2152      2150      2148      2151      2153
      2150      2148      2151      2154      2151      2154      2157      2158
      2151      2154      2157      2159      2151      2154      2157      2160
      2152      2151      2154      2155      2152      2151      2154      2156
      2152      2151      2154      2157      2153      2151      2154      2155
      2153      2151      2154      2156      2153      2151      2154      2157
      2154      2157      2160      2161      2154      2157      2160      2162
      2154      2157      2160      2163      2155      2154      2157      2158
      2155      2154      2157      2159      2155      2154      2157      2160
      2156      2154      2157      2158      2156      2154      2157      2159
      2156      2154      2157      2160      2157      2160      2163      2164
      2157      2160      2163      2165      2157      2160      2163      2166
      2158      2157      2160      2161      2158      2157      2160      2162
      2158      2157      2160      2163      2159      2157      2160      2161
      2159      2157      2160      2162      2159      2157      2160      2163
      2160      2163      2166      2167      2160      2163      2166      2168
      2160      2163      2166      2169      2161      2160      2163      2164
      2161      2160      2163      2165      2161      2160      2163      2166
      2162      2160      2163      2164      2162      2160      2163      2165
      2162      2160      2163      2166      2163      2166      2169      2170
      2163      2166      2169      2171      2163      2166      2169      2172
      2164      2163      2166      2167      2164      2163      2166      2168
      2164      2163      2166      2169      2165      2163      2166      2167
      2165      2163      2166      2168      2165      2163      2166      2169
      2167      2166      2169      2170      2167      2166      2169      2171
      2167      2166      2169      2172      2168      2166      2169      2170
      2168      2166      2169      2171      2168      2166      2169      2172
      2173      2177      2180      2181      2173      2177      2180      2182
      2173      2177      2180      2183      2174      2173      2177      2178
      2174      2173      2177      2179      2174      2173      2177      2180
      2175      2173      2177      2178      2175      2173      2177      2179
      2175      2173      2177      2180      2176      2173      2177      2178
      2176      2173      2177      2179      2176      2173      2177      2180
      2177      2180      2183      2184      2177      2180      2183      2185
      2177      2180      2183      2186      2178      2177      2180      2181
      2178      2177      2180      2182      2178      2177      2180      2183
      2179      2177      2180      2181      2179      2177      2180      2182
      2179      2177      2180      2183      2180      2183      2186      2187
      2180      2183      2186      2188      2180      2183      2186      2189
      2181      2180      2183      2184      2181      2180      2183      2185
      2181      2180      2183      2186      2182      2180      2183      2184
      2182      2180      2183      2185      2182      2180      2183      2186
      2183      2186      2189      2190      2183      2186      2189      2191
      2183      2186      2189      2192      2184      2183      2186      2187
      2184      2183      2186      2188      2184      2183      2186      2189
      2185      2183      2186      2187      2185      2183      2186      2188
      2185      2183      2186      2189      2186      2189      2192      2193
      2186      2189      2192      2194      2186      2189      2192      2195
      2187      2186      2189      2190      2187      2186      2189      2191
      2187      2186      2189      2192      2188      2186      2189      2190
      2188      2186      2189      2191      2188      2186      2189      2192
      2189      2192      2195      2196      2189      2192      2195      2197
      2189      2192      2195      2198      2190      2189      2192      2193
      2190      2189      2192      2194      2190      2189      2192      2195
      2191      2189      2192      2193      2191      2189      2192      2194
      2191      2189      2192      2195      2192      2195      2198      2199
      2192      2195      2198      2200      2192      2195      2198      2201
      2193      2192      2195      2196      2193      2192      2195      2197
      2193      2192      2195      2198      2194      2192      2195      2196
      2194      2192      2195      2197      2194      2192      2195      2198
      2195      2198      2201      2202      2195      2198      2201      2203
      2195      2198      2201      2204      2196      2195      2198      2199
      2196      2195      2198      2200      2196      2195      2198      2201
      2197      2195      2198      2199      2197      2195      2198      2200
      2197      2195      2198      2201      2198      2201      2204      2205
      2198      2201      2204      2206      2198      2201      2204      2207
      2199      2198      2201      2202      2199      2198      2201      2203
      2199      2198      2201      2204      2200      2198      2201      2202
      2200      2198      2201      2203      2200      2198      2201      2204
      2201      2204      2207      2208      2201      2204      2207      2209
      2201      2204      2207      2210      2202      2201      2204      2205
      2202      2201      2204      2206      2202      2201      2204      2207
      2203      2201      2204      2205      2203      2201      2204      2206
      2203      2201      2204      2207      2204      2207      2210      2211
      2204      2207      2210      2212      2204      2207      2210      2213
      2205      2204      2207      2208      2205      2204      2207      2209
      2205      2204      2207      2210      2206      2204      2207      2208
      2206      2204      2207      2209      2206      2204      2207      2210
      2207      2210      2213      2214      2207      2210      2213      2215
      2207      2210      2213      2216      2208      2207      2210      2211
      2208      2207      2210      2212      2208      2207      2210      2213
      2209      2207      2210      2211      2209      2207      2210      2212
      2209      2207      2210      2213      2210      2213      2216      2217
      2210      2213      2216      2218      2210      2213      2216      2219
      2211      2210      2213      2214      2211      2210      2213      2215
      2211      2210      2213      2216      2212      2210      2213      2214
      2212      2210      2213      2215      2212      2210      2213      2216
      2213      2216      2219      2220      2213      2216      2219      2221
      2213      2216      2219      2222      2214      2213      2216      2217
      2214      2213      2216      2218      2214      2213      2216      2219
      2215      2213      2216      2217      2215      2213      2216      2218
      2215      2213      2216      2219      2216      2219      2222      2223
      2216      2219      2222      2224      2216      2219      2222      2225
      2217      2216      2219      2220      2217      2216      2219      2221
      2217      2216      2219      2222      2218      2216      2219      2220
      2218      2216      2219      2221      2218      2216      2219      2222
      2219      2222      2225      2226      2219      2222      2225      2227
      2219      2222      2225      2228      2220      2219      2222      2223
      2220      2219      2222      2224      2220      2219      2222      2225
      2221      2219      2222      2223      2221      2219      2222      2224
      2221      2219      2222      2225      2222      2225      2228      2229
      2222      2225      2228      2230      2222      2225      2228      2231
      2223      2222      2225      2226      2223      2222      2225      2227
      2223      2222      2225      2228      2224      2222      2225      2226
      2224      2222      2225      2227      2224      2222      2225      2228
      2225      2228      2231      2232      2225      2228      2231      2233
      2225      2228      2231      2234      2226      2225      2228      2229
      2226      2225      2228      2230      2226      2225      2228      2231
      2227      2225      2228      2229      2227      2225      2228      2230
      2227      2225      2228      2231      2228      2231      2234      2235
      2228      2231      2234      2236      2228      2231      2234      2237
      2229      2228      2231      2232      2229      2228      2231      2233
      2229      2228      2231      2234      2230      2228      2231      2232
      2230      2228      2231      2233      2230      2228      2231      2234
      2231      2234      2237      2238      2231      2234      2237      2239
      2231      2234      2237      2240      2232      2231      2234      2235
      2232      2231      2234      2236      2232      2231      2234      2237
      2233      2231      2234      2235      2233      2231      2234      2236
      2233      2231      2234      2237      2234      2237      2240      2241
      2234      2237      2240      2242      2234      2237      2240      2243
      2235      2234      2237      2238      2235      2234      2237      2239
      2235      2234      2237      2240      2236      2234      2237      2238
      2236      2234      2237      2239      2236      2234      2237      2240
      2237      2240      2243      2244      2237      2240      2243      2245
      2237      2240      2243      2246      2238      2237      2240      2241
      2238      2237      2240      2242      2238      2237      2240      2243
      2239      2237      2240      2241      2239      2237      2240      2242
      2239      2237      2240      2243      2240      2243      2246      2247
      2240      2243      2246      2248      2240      2243      2246      2249
      2241      2240      2243      2244      2241      2240      2243      2245
      2241      2240      2243      2246      2242      2240      2243      2244
      2242      2240      2243      2245      2242      2240      2243      2246
      2243      2246      2249      2250      2243      2246      2249      2251
      2243      2246      2249      2252      2244      2243      2246      2247
      2244      2243      2246      2248      2244      2243      2246      2249
      2245      2243      2246      2247      2245      2243      2246      2248
      2245      2243      2246      2249      2246      2249      2252      2253
      2246      2249      2252      2254      2246      2249      2252      2255
      2247      2246      2249      2250      2247      2246      2249      2251
      2247      2246      2249      2252      2248      2246      2249      2250
      2248      2246      2249      2251      2248      2246      2249      2252
      2249      2252      2255      2256      2249      2252      2255      2257
      2249      2252      2255      2258      2250      2249      2252      2253
      2250      2249      2252      2254      2250      2249      2252      2255
      2251      2249      2252      2253      2251      2249      2252      2254
      2251      2249      2252      2255      2252      2255      2258      2259
      2252      2255      2258      2260      2252      2255      2258      2261
      2253      2252      2255      2256      2253      2252      2255      2257
      2253      2252      2255      2258      2254      2252      2255      2256
      2254      2252      2255      2257      2254      2252      2255      2258
      2255      2258      2261      2262      2255      2258      2261      2263
      2255      2258      2261      2264      2256      2255      2258      2259
      2256      2255      2258      2260      2256      2255      2258      2261
      2257      2255      2258      2259      2257      2255      2258      2260
      2257      2255      2258      2261      2258      2261      2264      2265
      2258      2261      2264      2266      2258      2261      2264      2267
      2259      2258      2261      2262      2259      2258      2261      2263
      2259      2258      2261      2264      2260      2258      2261      2262
      2260      2258      2261      2263      2260      2258      2261      2264
      2261      2264      2267      2268      2261      2264      2267      2269
      2261      2264      2267      2270      2262      2261      2264      2265
      2262      2261      2264      2266      2262      2261      2264      2267
      2263      2261      2264      2265      2263      2261      2264      2266
      2263      2261      2264      2267      2264      2267      2270      2271
      2264      2267      2270      2272      2264      2267      2270      2273
      2265      2264      2267      2268      2265      2264      2267      2269
      2265      2264      2267      2270      2266      2264      2267      2268
      2266      2264      2267      2269      2266      2264      2267      2270
      2267      2270      2273      2274      2267      2270      2273      2275
      2267      2270      2273      2276      2268      2267      2270      2271
      2268      2267      2270      2272      2268      2267      2270      2273
      2269      2267      2270      2271      2269      2267      2270      2272
      2269      2267      2270      2273      2270      2273      2276      2277
      2270      2273      2276      2278      2270      2273      2276      2279
      2271      2270      2273      2274      2271      2270      2273      2275
      2271      2270      2273      2276      2272      2270      2273      2274
      2272      2270      2273      2275      2272      2270      2273      2276
      2273      2276      2279      2280      2273      2276      2279      2281
      2273      2276      2279      2282      2274      2273      2276      2277
      2274      2273      2276      2278      2274      2273      2276      2279
      2275      2273      2276      2277      2275      2273      2276      2278
      2275      2273      2276      2279      2276      2279      2282      2283
      2276      2279      2282      2284      2276      2279      2282      2285
      2277      2276      2279      2280      2277      2276      2279      2281
      2277      2276      2279      2282      2278      2276      2279      2280
      2278      2276      2279      2281      2278      2276      2279      2282
      2279      2282      2285      2286      2279      2282      2285      2287
      2279      2282      2285      2288      2280      2279      2282      2283
      2280      2279      2282      2284      2280      2279      2282      2285
      2281      2279      2282      2283      2281      2279      2282      2284
      2281      2279      2282      2285      2282      2285      2288      2289
      2282      2285      2288      2290      2282      2285      2288      2291
      2283      2282      2285      2286      2283      2282      2285      2287
      2283      2282      2285      2288      2284      2282      2285      2286
      2284      2282      2285      2287      2284      2282      2285      2288
      2285      2288      2291      2292      2285      2288      2291      2293
      2285      2288      2291      2294      2286      2285      2288      2289
      2286      2285      2288      2290      2286      2285      2288      2291
      2287      2285      2288      2289      2287      2285      2288      2290
      2287      2285      2288      2291      2288      2291      2294      2295
      2288      2291      2294      2296      2288      2291      2294      2297
      2289      2288      2291      2292      2289      2288      2291      2293
      2289      2288      2291      2294      2290      2288      2291      2292
      2290      2288      2291      2293      2290      2288      2291      2294
      2291      2294      2297      2298      2291      2294      2297      2299
      2291      2294      2297      2300      2292      2291      2294      2295
      2292      2291      2294      2296      2292      2291      2294      2297
      2293      2291      2294      2295      2293      2291      2294      2296
      2293      2291      2294      2297      2294      2297      2300      2301
      2294      2297      2300      2302      2294      2297      2300      2303
      2295      2294      2297      2298      2295      2294      2297      2299
      2295      2294      2297      2300      2296      2294      2297      2298
      2296      2294      2297      2299      2296      2294      2297      2300
      2297      2300      2303      2304      2297      2300      2303      2305
      2297      2300      2303      2306      2298      2297      2300      2301
      2298      2297      2300      2302      2298      2297      2300      2303
      2299      2297      2300      2301      2299      2297      2300      2302
      2299      2297      2300      2303      2300      2303      2306      2307
      2300      2303      2306      2308      2300      2303      2306      2309
      2301      2300      2303      2304      2301      2300      2303      2305
      2301      2300      2303      2306      2302      2300      2303      2304
      2302      2300      2303      2305      2302      2300      2303      2306
      2303      2306      2309      2310      2303      2306      2309      2311
      2303      2306      2309      2312      2304      2303      2306      2307
      2304      2303      2306      2308      2304      2303      2306      2309
      2305      2303      2306      2307      2305      2303      2306      2308
      2305      2303      2306      2309      2306      2309      2312      2313
      2306      2309      2312      2314      2306      2309      2312      2315
      2307      2306      2309      2310      2307      2306      2309      2311
      2307      2306      2309      2312      2308      2306      2309      2310
      2308      2306      2309      2311      2308      2306      2309      2312
      2309      2312      2315      2316      2309      2312      2315      2317
      2309      2312      2315      2318      2310      2309      2312      2313
      2310      2309      2312      2314      2310      2309      2312      2315
      2311      2309      2312      2313      2311      2309      2312      2314
      2311      2309      2312      2315      2312      2315      2318      2319
      2312      2315      2318      2320      2312      2315      2318      2321
      2313      2312      2315      2316      2313      2312      2315      2317
      2313      2312      2315      2318      2314      2312      2315      2316
      2314      2312      2315      2317      2314      2312      2315      2318
      2315      2318      2321      2322      2315      2318      2321      2323
      2315      2318      2321      2324      2316      2315      2318      2319
      2316      2315      2318      2320      2316      2315      2318      2321
      2317      2315      2318      2319      2317      2315      2318      2320
      2317      2315      2318      2321      2318      2321      2324      2325
      2318      2321      2324      2326      2318      2321      2324      2327
      2319      2318      2321      2322      2319      2318      2321      2323
      2319      2318      2321      2324      2320      2318      2321      2322
      2320      2318      2321      2323      2320      2318      2321      2324
      2321      2324      2327      2328      2321      2324      2327      2329
      2321      2324      2327      2330      2322      2321      2324      2325
      2322      2321      2324      2326      2322      2321      2324      2327
      2323      2321      2324      2325      2323      2321      2324      2326
      2323      2321      2324      2327      2324      2327      2330      2331
      2324      2327      2330      2332      2324      2327      2330      2333
      2325      2324      2327      2328      2325      2324      2327      2329
      2325      2324      2327      2330      2326      2324      2327      2328
      2326      2324      2327      2329      2326      2324      2327      2330
      2327      2330      2333      2334      2327      2330      2333      2335
      2327      2330      2333      2336      2328      2327      2330      2331
      2328      2327      2330      2332      2328      2327      2330      2333
      2329      2327      2330      2331      2329      2327      2330      2332
      2329      2327      2330      2333      2330      2333      2336      2337
      2330      2333      2336      2338      2330      2333      2336      2339
      2331      2330      2333      2334      2331      2330      2333      2335
      2331      2330      2333      2336      2332      2330      2333      2334
      2332      2330      2333      2335      2332      2330      2333      2336
      2333      2336      2339      2340      2333      2336      2339      2341
      2333      2336      2339      2342      2334      2333      2336      2337
      2334      2333      2336      2338      2334      2333      2336      2339
      2335      2333      2336      2337      2335      2333      2336      2338
      2335      2333      2336      2339      2336      2339      2342      2343
      2336      2339      2342      2344      2336      2339      2342      2345
      2337      2336      2339      2340      2337      2336      2339      2341
      2337      2336      2339      2342      2338      2336      2339      2340
      2338      2336      2339      2341      2338      2336      2339      2342
      2339      2342      2345      2346      2339      2342      2345      2347
      2339      2342      2345      2348      2340      2339      2342      2343
      2340      2339      2342      2344      2340      2339      2342      2345
      2341      2339      2342      2343      2341      2339      2342      2344
      2341      2339      2342      2345      2342      2345      2348      2349
      2342      2345      2348      2350      2342      2345      2348      2351
      2343      2342      2345      2346      2343      2342      2345      2347
      2343      2342      2345      2348      2344      2342      2345      2346
      2344      2342      2345      2347      2344      2342      2345      2348
      2345      2348      2351      2352      2345      2348      2351      2353
      2345      2348      2351      2354      2346      2345      2348      2349
      2346      2345      2348      2350      2346      2345      2348      2351
      2347      2345      2348      2349      2347      2345      2348      2350
      2347      2345      2348      2351      2348      2351      2354      2355
      2348      2351      2354      2356      2348      2351      2354      2357
      2349      2348      2351      2352      2349      2348      2351      2353
      2349      2348      2351      2354      2350      2348      2351      2352
      2350      2348      2351      2353      2350      2348      2351      2354
      2351      2354      2357      2358      2351      2354      2357      2359
      2351      2354      2357      2360      2352      2351      2354      2355
      2352      2351      2354      2356      2352      2351      2354      2357
      2353      2351      2354      2355      2353      2351      2354      2356
      2353      2351      2354      2357      2354      2357      2360      2361
      2354      2357      2360      2362      2354      2357      2360      2363
      2355      2354      2357      2358      2355      2354      2357      2359
      2355      2354      2357      2360      2356      2354      2357      2358
      2356      2354      2357      2359      2356      2354      2357      2360
      2357      2360      2363      2364      2357      2360      2363      2365
      2357      2360      2363      2366      2358      2357      2360      2361
      2358      2357      2360      2362      2358      2357      2360      2363
      2359      2357      2360      2361      2359      2357      2360      2362
      2359      2357      2360      2363      2360      2363      2366      2367
      2360      2363      2366      2368      2360      2363      2366      2369
      2361      2360      2363      2364      2361      2360      2363      2365
      2361      2360      2363      2366      2362      2360      2363      2364
      2362      2360      2363      2365      2362      2360      2363      2366
      2363      2366      2369      2370      2363      2366      2369      2371
      2363      2366      2369      2372      2364      2363      2366      2367
      2364      2363      2366      2368      2364      2363      2366      2369
      2365      2363      2366      2367      2365      2363      2366      2368
      2365      2363      2366      2369      2366      2369      2372      2373
      2366      2369      2372      2374      2366      2369      2372      2375
      2367      2366      2369      2370      2367      2366      2369      2371
      2367      2366      2369      2372      2368      2366      2369      2370
      2368      2366      2369      2371      2368      2366      2369      2372
      2369      2372      2375      2376      2369      2372      2375      2377
      2369      2372      2375      2378      2370      2369      2372      2373
      2370      2369      2372      2374      2370      2369      2372      2375
      2371      2369      2372      2373      2371      2369      2372      2374
      2371      2369      2372      2375      2372      2375      2378      2379
      2372      2375      2378      2380      2372      2375      2378      2381
      2373      2372      2375      2376      2373      2372      2375      2377
      2373      2372      2375      2378      2374      2372      2375      2376
      2374      2372      2375      2377      2374      2372      2375      2378
      2375      2378      2381      2382      2375      2378      2381      2383
      2375      2378      2381      2384      2376      2375      2378      2379
      2376      2375      2378      2380      2376      2375      2378      2381
      2377      2375      2378      2379      2377      2375      2378      2380
      2377      2375      2378      2381      2378      2381      2384      2385
      2378      2381      2384      2386      2378      2381      2384      2387
      2379      2378      2381      2382      2379      2378      2381      2383
      2379      2378      2381      2384      2380      2378      2381      2382
      2380      2378      2381      2383      2380      2378      2381      2384
      2381      2384      2387      2388      2381      2384      2387      2389
      2381      2384      2387      2390      2382      2381      2384      2385
      2382      2381      2384      2386      2382      2381      2384      2387
      2383      2381      2384      2385      2383      2381      2384      2386
      2383      2381      2384      2387      2384      2387      2390      2391
      2384      2387      2390      2392      2384      2387      2390      2393
      2385      2384      2387      2388      2385      2384      2387      2389
      2385      2384      2387      2390      2386      2384      2387      2388
      2386      2384      2387      2389      2386      2384      2387      2390
      2387      2390      2393      2394      2387      2390      2393      2395
      2387      2390      2393      2396      2388      2387      2390      2391
      2388      2387      2390      2392      2388      2387      2390      2393
      2389      2387      2390      2391      2389      2387      2390      2392
      2389      2387      2390      2393      2390      2393      2396      2397
      2390      2393      2396      2398      2390      2393      2396      2399
      2391      2390      2393      2394      2391      2390      2393      2395
      2391      2390      2393      2396      2392      2390      2393      2394
      2392      2390      2393      2395      2392      2390      2393      2396
      2393      2396      2399      2400      2393      2396      2399      2401
      2393      2396      2399      2402      2394      2393      2396      2397
      2394      2393      2396      2398      2394      2393      2396      2399
      2395      2393      2396      2397      2395      2393      2396      2398
      2395      2393      2396      2399      2396      2399      2402      2403
      2396      2399      2402      2404      2396      2399      2402      2405
      2397      2396      2399      2400      2397      2396      2399      2401
      2397      2396      2399      2402      2398      2396      2399      2400
      2398      2396      2399      2401      2398      2396      2399      2402
      2399      2402      2405      2406      2399      2402      2405      2407
      2399      2402      2405      2408      2400      2399      2402      2403
      2400      2399      2402      2404      2400      2399      2402      2405
      2401      2399      2402      2403      2401      2399      2402      2404
      2401      2399      2402      2405      2402      2405      2408      2409
      2402      2405      2408      2410      2402      2405      2408      2411
      2403      2402      2405      2406      2403      2402      2405      2407
      2403      2402      2405      2408      2404      2402      2405      2406
      2404      2402      2405      2407      2404      2402      2405      2408
      2405      2408      2411      2412      2405      2408      2411      2413
      2405      2408      2411      2414      2406      2405      2408      2409
      2406      2405      2408      2410      2406      2405      2408      2411
      2407      2405      2408      2409      2407      2405      2408      2410
      2407      2405      2408      2411      2408      2411      2414      2415
      2408      2411      2414      2416      2408      2411      2414      2417
      2409      2408      2411      2412      2409      2408      2411      2413
      2409      2408      2411      2414      2410      2408      2411      2412
      2410      2408      2411      2413      2410      2408      2411      2414
      2411      2414      2417      2418      2411      2414      2417      2419
      2411      2414      2417      2420      2412      2411      2414      2415
      2412      2411      2414      2416      2412      2411      2414      2417
      2413      2411      2414      2415      2413      2411      2414      2416
      2413      2411      2414      2417      2414      2417      2420      2421
      2414      2417      2420      2422      2414      2417      2420      2423
      2415      2414      2417      2418      2415      2414      2417      2419
      2415      2414      2417      2420      2416      2414      2417      2418
      2416      2414      2417      2419      2416      2414      2417      2420
      2417      2420      2423      2424      2417      2420      2423      2425
      2417      2420      2423      2426      2418      2417      2420      2421
      2418      2417      2420      2422      2418      2417      2420      2423
      2419      2417      2420      2421      2419      2417      2420      2422
      2419      2417      2420      2423      2420      2423      2426      2427
      2420      2423      2426      2428      2420      2423      2426      2429
      2421      2420      2423      2424      2421      2420      2423      2425
      2421      2420      2423      2426      2422      2420      2423      2424
      2422      2420      2423      2425      2422      2420      2423      2426
      2423      2426      2429      2430      2423      2426      2429      2431
      2423      2426      2429      2432      2424      2423      2426      2427
      2424      2423      2426      2428      2424      2423      2426      2429
      2425      2423      2426      2427      2425      2423      2426      2428
      2425      2423      2426      2429      2426      2429      2432      2433
      2426      2429      2432      2434      2426      2429      2432      2435
      2427      2426      2429      2430      2427      2426      2429      2431
      2427      2426      2429      2432      2428      2426      2429      2430
      2428      2426      2429      2431      2428      2426      2429      2432
      2429      2432      2435      2436      2429      2432      2435      2437
      2429      2432      2435      2438      2430      2429      2432      2433
      2430      2429      2432      2434      2430      2429      2432      2435
      2431      2429      2432      2433      2431      2429      2432      2434
      2431      2429      2432      2435      2432      2435      2438      2439
      2432      2435      2438      2440      2432      2435      2438      2441
      2433      2432      2435      2436      2433      2432      2435      2437
      2433      2432      2435      2438      2434      2432      2435      2436
      2434      2432      2435      2437      2434      2432      2435      2438
      2435      2438      2441      2442      2435      2438      2441      2443
      2435      2438      2441      2444      2436      2435      2438      2439
      2436      2435      2438      2440      2436      2435      2438      2441
      2437      2435      2438      2439      2437      2435      2438      2440
      2437      2435      2438      2441      2438      2441      2444      2445
      2438      2441      2444      2446      2438      2441      2444      2447
      2439      2438      2441      2442      2439      2438      2441      2443
      2439      2438      2441      2444      2440      2438      2441      2442
      2440      2438      2441      2443      2440      2438      2441      2444
      2441      2444      2447      2448      2441      2444      2447      2449
      2441      2444      2447      2450      2442      2441      2444      2445
      2442      2441      2444      2446      2442      2441      2444      2447
      2443      2441      2444      2445      2443      2441      2444      2446
      2443      2441      2444      2447      2444      2447      2450      2451
      2444      2447      2450      2452      2444      2447      2450      2453
      2445      2444      2447      2448      2445      2444      2447      2449
      2445      2444      2447      2450      2446      2444      2447      2448
      2446      2444      2447      2449      2446      2444      2447      2450
      2447      2450      2453      2454      2447      2450      2453      2455
      2447      2450      2453      2456      2448      2447      2450      2451
      2448      2447      2450      2452      2448      2447      2450      2453
      2449      2447      2450      2451      2449      2447      2450      2452
      2449      2447      2450      2453      2450      2453      2456      2457
      2450      2453      2456      2458      2450      2453      2456      2459
      2451      2450      2453      2454      2451      2450      2453      2455
      2451      2450      2453      2456      2452      2450      2453      2454
      2452      2450      2453      2455      2452      2450      2453      2456
      2453      2456      2459      2460      2453      2456      2459      2461
      2453      2456      2459      2462      2454      2453      2456      2457
      2454      2453      2456      2458      2454      2453      2456      2459
      2455      2453      2456      2457      2455      2453      2456      2458
      2455      2453      2456      2459      2456      2459      2462      2463
      2456      2459      2462      2464      2456      2459      2462      2465
      2457      2456      2459      2460      2457      2456      2459      2461
      2457      2456      2459      2462      2458      2456      2459      2460
      2458      2456      2459      2461      2458      2456      2459      2462
      2459      2462      2465      2466      2459      2462      2465      2467
      2459      2462      2465      2468      2460      2459      2462      2463
      2460      2459      2462      2464      2460      2459      2462      2465
      2461      2459      2462      2463      2461      2459      2462      2464
      2461      2459      2462      2465      2462      2465      2468      2469
      2462      2465      2468      2470      2462      2465      2468      2471
      2463      2462      2465      2466      2463      2462      2465      2467
      2463      2462      2465      2468      2464      2462      2465      2466
      2464      2462      2465      2467      2464      2462      2465      2468
      2465      2468      2471      2472      2465      2468      2471      2473
      2465      2468      2471      2474      2466      2465      2468      2469
      2466      2465      2468      2470      2466      2465      2468      2471
      2467      2465      2468      2469      2467      2465      2468      2470
      2467      2465      2468      2471      2468      2471      2474      2475
      2468      2471      2474      2476      2468      2471      2474      2477
      2469      2468      2471      2472      2469      2468      2471      2473
      2469      2468      2471      2474      2470      2468      2471      2472
      2470      2468      2471      2473      2470      2468      2471      2474
      2471      2474      2477      2478      2471      2474      2477      2479
      2471      2474      2477      2480      2472      2471      2474      2475
      2472      2471      2474      2476      2472      2471      2474      2477
      2473      2471      2474      2475      2473      2471      2474      2476
      2473      2471      2474      2477      2474      2477      2480      2481
      2474      2477      2480      2482      2474      2477      2480      2483
      2475      2474      2477      2478      2475      2474      2477      2479
      2475      2474      2477      2480      2476      2474      2477      2478
      2476      2474      2477      2479      2476      2474      2477      2480
      2477      2480      2483      2484      2477      2480      2483      2485
      2477      2480      2483      2486      2478      2477      2480      2481
      2478      2477      2480      2482      2478      2477      2480      2483
      2479      2477      2480      2481      2479      2477      2480      2482
      2479      2477      2480      2483      2480      2483      2486      2487
      2480      2483      2486      2488      2480      2483      2486      2489
      2481      2480      2483      2484      2481      2480      2483      2485
      2481      2480      2483      2486      2482      2480      2483      2484
      2482      2480      2483      2485      2482      2480      2483      2486
      2483      2486      2489      2490      2483      2486      2489      2491
      2483      2486      2489      2492      2484      2483      2486      2487
      2484      2483      2486      2488      2484      2483      2486      2489
      2485      2483      2486      2487      2485      2483      2486      2488
      2485      2483      2486      2489      2486      2489      2492      2493
      2486      2489      2492      2494      2486      2489      2492      2495
      2487      2486      2489      2490      2487      2486      2489      2491
      2487      2486      2489      2492      2488      2486      2489      2490
      2488      2486      2489      2491      2488      2486      2489      2492
      2489      2492      2495      2496      2489      2492      2495      2497
      2489      2492      2495      2498      2490      2489      2492      2493
      2490      2489      2492      2494      2490      2489      2492      2495
      2491      2489      2492      2493      2491      2489      2492      2494
      2491      2489      2492      2495      2492      2495      2498      2499
      2492      2495      2498      2500      2492      2495      2498      2501
      2493      2492      2495      2496      2493      2492      2495      2497
      2493      2492      2495      2498      2494      2492      2495      2496
      2494      2492      2495      2497      2494      2492      2495      2498
      2495      2498      2501      2502      2495      2498      2501      2503
      2495      2498      2501      2504      2496      2495      2498      2499
      2496      2495      2498      2500      2496      2495      2498      2501
      2497      2495      2498      2499      2497      2495      2498      2500
      2497      2495      2498      2501      2498      2501      2504      2505
      2498      2501      2504      2506      2498      2501      2504      2507
      2499      2498      2501      2502      2499      2498      2501      2503
      2499      2498      2501      2504      2500      2498      2501      2502
      2500      2498      2501      2503      2500      2498      2501      2504
      2501      2504      2507      2508      2501      2504      2507      2509
      2501      2504      2507      2510      2502      2501      2504      2505
      2502      2501      2504      2506      2502      2501      2504      2507
      2503      2501      2504      2505      2503      2501      2504      2506
      2503      2501      2504      2507      2504      2507      2510      2511
      2504      2507      2510      2512      2504      2507      2510      2513
      2505      2504      2507      2508      2505      2504      2507      2509
      2505      2504      2507      2510      2506      2504      2507      2508
      2506      2504      2507      2509      2506      2504      2507      2510
      2507      2510      2513      2514      2507      2510      2513      2515
      2507      2510      2513      2516      2508      2507      2510      2511
      2508      2507      2510      2512      2508      2507      2510      2513
      2509      2507      2510      2511      2509      2507      2510      2512
      2509      2507      2510      2513      2510      2513      2516      2517
      2510      2513      2516      2518      2510      2513      2516      2519
      2511      2510      2513      2514      2511      2510      2513      2515
      2511      2510      2513      2516      2512      2510      2513      2514
      2512      2510      2513      2515      2512      2510      2513      2516
      2513      2516      2519      2520      2513      2516      2519      2521
      2513      2516      2519      2522      2514      2513      2516      2517
      2514      2513      2516      2518      2514      2513      2516      2519
      2515      2513      2516      2517      2515      2513      2516      2518
      2515      2513      2516      2519      2516      2519      2522      2523
      2516      2519      2522      2524      2516      2519      2522      2525
      2517      2516      2519      2520      2517      2516      2519      2521
      2517      2516      2519      2522      2518      2516      2519      2520
      2518      2516      2519      2521      2518      2516      2519      2522
      2519      2522      2525      2526      2519      2522      2525      2527
      2519      2522      2525      2528      2520      2519      2522      2523
      2520      2519      2522      2524      2520      2519      2522      2525
      2521      2519      2522      2523      2521      2519      2522      2524
      2521      2519      2522      2525      2522      2525      2528      2529
      2522      2525      2528      2530      2522      2525      2528      2531
      2523      2522      2525      2526      2523      2522      2525      2527
      2523      2522      2525      2528      2524      2522      2525      2526
      2524      2522      2525      2527      2524      2522      2525      2528
      2525      2528      2531      2532      2525      2528      2531      2533
      2525      2528      2531      2534      2526      2525      2528      2529
      2526      2525      2528      2530      2526      2525      2528      2531
      2527      2525      2528      2529      2527      2525      2528      2530
      2527      2525      2528      2531      2529      2528      2531      2532
      2529      2528      2531      2533      2529      2528      2531      2534
      2530      2528      2531      2532      2530      2528      2531      2533
      2530      2528      2531      2534      2535      2539      2542      2543
      2535      2539      2542      2544      2535      2539      2542      2545
      2536      2535      2539      2540      2536      2535      2539      2541
      2536      2535      2539      2542      2537      2535      2539      2540
      2537      2535      2539      2541      2537      2535      2539      2542
      2538      2535      2539      2540      2538      2535      2539      2541
      2538      2535      2539      2542      2539      2542      2545      2546
      2539      2542      2545      2547      2539      2542      2545      2548
      2540      2539      2542      2543      2540      2539      2542      2544
      2540      2539      2542      2545      2541      2539      2542      2543
      2541      2539      2542      2544      2541      2539      2542      2545
      2542      2545      2548      2549      2542      2545      2548      2550
      2542      2545      2548      2551      2543      2542      2545      2546
      2543      2542      2545      2547      2543      2542      2545      2548
      2544      2542      2545      2546      2544      2542      2545      2547
      2544      2542      2545      2548      2545      2548      2551      2552
      2545      2548      2551      2553      2545      2548      2551      2554
      2546      2545      2548      2549      2546      2545      2548      2550
      2546      2545      2548      2551      2547      2545      2548      2549
      2547      2545      2548      2550      2547      2545      2548      2551
      2548      2551      2554      2555      2548      2551      2554      2556
      2548      2551      2554      2557      2549      2548      2551      2552
      2549      2548      2551      2553      2549      2548      2551      2554
      2550      2548      2551      2552      2550      2548      2551      2553
      2550      2548      2551      2554      2551      2554      2557      2558
      2551      2554      2557      2559      2551      2554      2557      2560
      2552      2551      2554      2555      2552      2551      2554      2556
      2552      2551      2554      2557      2553      2551      2554      2555
      2553      2551      2554      2556      2553      2551      2554      2557
      2554      2557      2560      2561      2554      2557      2560      2562
      2554      2557      2560      2563      2555      2554      2557      2558
      2555      2554      2557      2559      2555      2554      2557      2560
      2556      2554      2557      2558      2556      2554      2557      2559
      2556      2554      2557      2560      2557      2560      2563      2564
      2557      2560      2563      2565      2557      2560      2563      2566
      2558      2557      2560      2561      2558      2557      2560      2562
      2558      2557      2560      2563      2559      2557      2560      2561
      2559      2557      2560      2562      2559      2557      2560      2563
      2560      2563      2566      2567      2560      2563      2566      2568
      2560      2563      2566      2569      2561      2560      2563      2564
      2561      2560      2563      2565      2561      2560      2563      2566
      2562      2560      2563      2564      2562      2560      2563      2565
      2562      2560      2563      2566      2563      2566      2569      2570
      2563      2566      2569      2571      2563      2566      2569      2572
      2564      2563      2566      2567      2564      2563      2566      2568
      2564      2563      2566      2569      2565      2563      2566      2567
      2565      2563      2566      2568      2565      2563      2566      2569
      2566      2569      2572      2573      2566      2569      2572      2574
      2566      2569      2572      2575      2567      2566      2569      2570
      2567      2566      2569      2571      2567      2566      2569      2572
      2568      2566      2569      2570      2568      2566      2569      2571
      2568      2566      2569      2572      2569      2572      2575      2576
      2569      2572      2575      2577      2569      2572      2575      2578
      2570      2569      2572      2573      2570      2569      2572      2574
      2570      2569      2572      2575      2571      2569      2572      2573
      2571      2569      2572      2574      2571      2569      2572      2575
      2572      2575      2578      2579      2572      2575      2578      2580
      2572      2575      2578      2581      2573      2572      2575      2576
      2573      2572      2575      2577      2573      2572      2575      2578
      2574      2572      2575      2576      2574      2572      2575      2577
      2574      2572      2575      2578      2575      2578      2581      2582
      2575      2578      2581      2583      2575      2578      2581      2584
      2576      2575      2578      2579      2576      2575      2578      2580
      2576      2575      2578      2581      2577      2575      2578      2579
      2577      2575      2578      2580      2577      2575      2578      2581
      2578      2581      2584      2585      2578      2581      2584      2586
      2578      2581      2584      2587      2579      2578      2581      2582
      2579      2578      2581      2583      2579      2578      2581      2584
      2580      2578      2581      2582      2580      2578      2581      2583
      2580      2578      2581      2584      2581      2584      2587      2588
      2581      2584      2587      2589      2581      2584      2587      2590
      2582      2581      2584      2585      2582      2581      2584      2586
      2582      2581      2584      2587      2583      2581      2584      2585
      2583      2581      2584      2586      2583      2581      2584      2587
      2584      2587      2590      2591      2584      2587      2590      2592
      2584      2587      2590      2593      2585      2584      2587      2588
      2585      2584      2587      2589      2585      2584      2587      2590
      2586      2584      2587      2588      2586      2584      2587      2589
      2586      2584      2587      2590      2587      2590      2593      2594
      2587      2590      2593      2595      2587      2590      2593      2596
      2588      2587      2590      2591      2588      2587      2590      2592
      2588      2587      2590      2593      2589      2587      2590      2591
      2589      2587      2590      2592      2589      2587      2590      2593
      2590      2593      2596      2597      2590      2593      2596      2598
      2590      2593      2596      2599      2591      2590      2593      2594
      2591      2590      2593      2595      2591      2590      2593      2596
      2592      2590      2593      2594      2592      2590      2593      2595
      2592      2590      2593      2596      2593      2596      2599      2600
      2593      2596      2599      2601      2593      2596      2599      2602
      2594      2593      2596      2597      2594      2593      2596      2598
      2594      2593      2596      2599      2595      2593      2596      2597
      2595      2593      2596      2598      2595      2593      2596      2599
      2596      2599      2602      2603      2596      2599      2602      2604
      2596      2599      2602      2605      2597      2596      2599      2600
      2597      2596      2599      2601      2597      2596      2599      2602
      2598      2596      2599      2600      2598      2596      2599      2601
      2598      2596      2599      2602      2599      2602      2605      2606
      2599      2602      2605      2607      2599      2602      2605      2608
      2600      2599      2602      2603      2600      2599      2602      2604
      2600      2599      2602      2605      2601      2599      2602      2603
      2601      2599      2602      2604      2601      2599      2602      2605
      2602      2605      2608      2609      2602      2605      2608      2610
      2602      2605      2608      2611      2603      2602      2605      2606
      2603      2602      2605      2607      2603      2602      2605      2608
      2604      2602      2605      2606      2604      2602      2605      2607
      2604      2602      2605      2608      2605      2608      2611      2612
      2605      2608      2611      2613      2605      2608      2611      2614
      2606      2605      2608      2609      2606      2605      2608      2610
      2606      2605      2608      2611      2607      2605      2608      2609
      2607      2605      2608      2610      2607      2605      2608      2611
      2608      2611      2614      2615      2608      2611      2614      2616
      2608      2611      2614      2617      2609      2608      2611      2612
      2609      2608      2611      2613      2609      2608      2611      2614
      2610      2608      2611      2612      2610      2608      2611      2613
      2610      2608      2611      2614      2611      2614      2617      2618
      2611      2614      2617      2619      2611      2614      2617      2620
      2612      2611      2614      2615      2612      2611      2614      2616
      2612      2611      2614      2617      2613      2611      2614      2615
      2613      2611      2614      2616      2613      2611      2614      2617
      2614      2617      2620      2621      2614      2617      2620      2622
      2614      2617      2620      2623      2615      2614      2617      2618
      2615      2614      2617      2619      2615      2614      2617      2620
      2616      2614      2617      2618      2616      2614      2617      2619
      2616      2614      2617      2620      2617      2620      2623      2624
      2617      2620      2623      2625      2617      2620      2623      2626
      2618      2617      2620      2621      2618      2617      2620      2622
      2618      2617      2620      2623      2619      2617      2620      2621
      2619      2617      2620      2622      2619      2617      2620      2623
      2620      2623      2626      2627      2620      2623      2626      2628
      2620      2623      2626      2629      2621      2620      2623      2624
      2621      2620      2623      2625      2621      2620      2623      2626
      2622      2620      2623      2624      2622      2620      2623      2625
      2622      2620      2623      2626      2623      2626      2629      2630
      2623      2626      2629      2631      2623      2626      2629      2632
      2624      2623      2626      2627      2624      2623      2626      2628
      2624      2623      2626      2629      2625      2623      2626      2627
      2625      2623      2626      2628      2625      2623      2626      2629
      2626      2629      2632      2633      2626      2629      2632      2634
      2626      2629      2632      2635      2627      2626      2629      2630
      2627      2626      2629      2631      2627      2626      2629      2632
      2628      2626      2629      2630      2628      2626      2629      2631
      2628      2626      2629      2632      2629      2632      2635      2636
      2629      2632      2635      2637      2629      2632      2635      2638
      2630      2629      2632      2633      2630      2629      2632      2634
      2630      2629      2632      2635      2631      2629      2632      2633
      2631      2629      2632      2634      2631      2629      2632      2635
      2632      2635      2638      2639      2632      2635      2638      2640
      2632      2635      2638      2641      2633      2632      2635      2636
      2633      2632      2635      2637      2633      2632      2635      2638
      2634      2632      2635      2636      2634      2632      2635      2637
      2634      2632      2635      2638      2635      2638      2641      2642
      2635      2638      2641      2643      2635      2638      2641      2644
      2636      2635      2638      2639      2636      2635      2638      2640
      2636      2635      2638      2641      2637      2635      2638      2639
      2637      2635      2638      2640      2637      2635      2638      2641
      2638      2641      2644      2645      2638      2641      2644      2646
      2638      2641      2644      2647      2639      2638      2641      2642
      2639      2638      2641      2643      2639      2638      2641      2644
      2640      2638      2641      2642      2640      2638      2641      2643
      2640      2638      2641      2644      2641      2644      2647      2648
      2641      2644      2647      2649      2641      2644      2647      2650
      2642      2641      2644      2645      2642      2641      2644      2646
      2642      2641      2644      2647      2643      2641      2644      2645
      2643      2641      2644      2646      2643      2641      2644      2647
      2644      2647      2650      2651      2644      2647      2650      2652
      2644      2647      2650      2653      2645      2644      2647      2648
      2645      2644      2647      2649      2645      2644      2647      2650
      2646      2644      2647      2648      2646      2644      2647      2649
      2646      2644      2647      2650      2647      2650      2653      2654
      2647      2650      2653      2655      2647      2650      2653      2656
      2648      2647      2650      2651      2648      2647      2650      2652
      2648      2647      2650      2653      2649      2647      2650      2651
      2649      2647      2650      2652      2649      2647      2650      2653
      2650      2653      2656      2657      2650      2653      2656      2658
      2650      2653      2656      2659      2651      2650      2653      2654
      2651      2650      2653      2655      2651      2650      2653      2656
      2652      2650      2653      2654      2652      2650      2653      2655
      2652      2650      2653      2656      2653      2656      2659      2660
      2653      2656      2659      2661      2653      2656      2659      2662
      2654      2653      2656      2657      2654      2653      2656      2658
      2654      2653      2656      2659      2655      2653      2656      2657
      2655      2653      2656      2658      2655      2653      2656      2659
      2656      2659      2662      2663      2656      2659      2662      2664
      2656      2659      2662      2665      2657      2656      2659      2660
      2657      2656      2659      2661      2657      2656      2659      2662
      2658      2656      2659      2660      2658      2656      2659      2661
      2658      2656      2659      2662      2659      2662      2665      2666
      2659      2662      2665      2667      2659      2662      2665      2668
      2660      2659      2662      2663      2660      2659      2662      2664
      2660      2659      2662      2665      2661      2659      2662      2663
      2661      2659      2662      2664      2661      2659      2662      2665
      2662      2665      2668      2669      2662      2665      2668      2670
      2662      2665      2668      2671      2663      2662      2665      2666
      2663      2662      2665      2667      2663      2662      2665      2668
      2664      2662      2665      2666      2664      2662      2665      2667
      2664      2662      2665      2668      2665      2668      2671      2672
      2665      2668      2671      2673      2665      2668      2671      2674
      2666      2665      2668      2669      2666      2665      2668      2670
      2666      2665      2668      2671      2667      2665      2668      2669
      2667      2665      2668      2670      2667      2665      2668      2671
      2668      2671      2674      2675      2668      2671      2674      2676
      2668      2671      2674      2677      2669      2668      2671      2672
      2669      2668      2671      2673      2669      2668      2671      2674
      2670      2668      2671      2672      2670      2668      2671      2673
      2670      2668      2671      2674      2671      2674      2677      2678
      2671      2674      2677      2679      2671      2674      2677      2680
      2672      2671      2674      2675      2672      2671      2674      2676
      2672      2671      2674      2677      2673      2671      2674      2675
      2673      2671      2674      2676      2673      2671      2674      2677
      2674      2677      2680      2681      2674      2677      2680      2682
      2674      2677      2680      2683      2675      2674      2677      2678
      2675      2674      2677      2679      2675      2674      2677      2680
      2676      2674      2677      2678      2676      2674      2677      2679
      2676      2674      2677      2680      2677      2680      2683      2684
      2677      2680      2683      2685      2677      2680      2683      2686
      2678      2677      2680      2681      2678      2677      2680      2682
      2678      2677      2680      2683      2679      2677      2680      2681
      2679      2677      2680      2682      2679      2677      2680      2683
      2680      2683      2686      2687      2680      2683      2686      2688
      2680      2683      2686      2689      2681      2680      2683      2684
      2681      2680      2683      2685      2681      2680      2683      2686
      2682      2680      2683      2684      2682      2680      2683      2685
      2682      2680      2683      2686      2683      2686      2689      2690
      2683      2686      2689      2691      2683      2686      2689      2692
      2684      2683      2686      2687      2684      2683      2686      2688
      2684      2683      2686      2689      2685      2683      2686      2687
      2685      2683      2686      2688      2685      2683      2686      2689
      2686      2689      2692      2693      2686      2689      2692      2694
      2686      2689      2692      2695      2687      2686      2689      2690
      2687      2686      2689      2691      2687      2686      2689      2692
      2688      2686      2689      2690      2688      2686      2689      2691
      2688      2686      2689      2692      2689      2692      2695      2696
      2689      2692      2695      2697      2689      2692      2695      2698
      2690      2689      2692      2693      2690      2689      2692      2694
      2690      2689      2692      2695      2691      2689      2692      2693
      2691      2689      2692      2694      2691      2689      2692      2695
      2692      2695      2698      2699      2692      2695      2698      2700
      2692      2695      2698      2701      2693      2692      2695      2696
      2693      2692      2695      2697      2693      2692      2695      2698
      2694      2692      2695      2696      2694      2692      2695      2697
      2694      2692      2695      2698      2695      2698      2701      2702
      2695      2698      2701      2703      2695      2698      2701      2704
      2696      2695      2698      2699      2696      2695      2698      2700
      2696      2695      2698      2701      2697      2695      2698      2699
      2697      2695      2698      2700      2697      2695      2698      2701
      2698      2701      2704      2705      2698      2701      2704      2706
      2698      2701      2704      2707      2699      2698      2701      2702
      2699      2698      2701      2703      2699      2698      2701      2704
      2700      2698      2701      2702      2700      2698      2701      2703
      2700      2698      2701      2704      2701      2704      2707      2708
      2701      2704      2707      2709      2701      2704      2707      2710
      2702      2701      2704      2705      2702      2701      2704      2706
      2702      2701      2704      2707      2703      2701      2704      2705
      2703      2701      2704      2706      2703      2701      2704      2707
      2704      2707      2710      2711      2704      2707      2710      2712
      2704      2707      2710      2713      2705      2704      2707      2708
      2705      2704      2707      2709      2705      2704      2707      2710
      2706      2704      2707      2708      2706      2704      2707      2709
      2706      2704      2707      2710      2707      2710      2713      2714
      2707      2710      2713      2715      2707      2710      2713      2716
      2708      2707      2710      2711      2708      2707      2710      2712
      2708      2707      2710      2713      2709      2707      2710      2711
      2709      2707      2710      2712      2709      2707      2710      2713
      2710      2713      2716      2717      2710      2713      2716      2718
      2710      2713      2716      2719      2711      2710      2713      2714
      2711      2710      2713      2715      2711      2710      2713      2716
      2712      2710      2713      2714      2712      2710      2713      2715
      2712      2710      2713      2716      2713      2716      2719      2720
      2713      2716      2719      2721      2713      2716      2719      2722
      2714      2713      2716      2717      2714      2713      2716      2718
      2714      2713      2716      2719      2715      2713      2716      2717
      2715      2713      2716      2718      2715      2713      2716      2719
      2716      2719      2722      2723      2716      2719      2722      2724
      2716      2719      2722      2725      2717      2716      2719      2720
      2717      2716      2719      2721      2717      2716      2719      2722
      2718      2716      2719      2720      2718      2716      2719      2721
      2718      2716      2719      2722      2719      2722      2725      2726
      2719      2722      2725      2727      2719      2722      2725      2728
      2720      2719      2722      2723      2720      2719      2722      2724
      2720      2719      2722      2725      2721      2719      2722      2723
      2721      2719      2722      2724      2721      2719      2722      2725
      2722      2725      2728      2729      2722      2725      2728      2730
      2722      2725      2728      2731      2723      2722      2725      2726
      2723      2722      2725      2727      2723      2722      2725      2728
      2724      2722      2725      2726      2724      2722      2725      2727
      2724      2722      2725      2728      2725      2728      2731      2732
      2725      2728      2731      2733      2725      2728      2731      2734
      2726      2725      2728      2729      2726      2725      2728      2730
      2726      2725      2728      2731      2727      2725      2728      2729
      2727      2725      2728      2730      2727      2725      2728      2731
      2728      2731      2734      2735      2728      2731      2734      2736
      2728      2731      2734      2737      2729      2728      2731      2732
      2729      2728      2731      2733      2729      2728      2731      2734
      2730      2728      2731      2732      2730      2728      2731      2733
      2730      2728      2731      2734      2731      2734      2737      2738
      2731      2734      2737      2739      2731      2734      2737      2740
      2732      2731      2734      2735      2732      2731      2734      2736
      2732      2731      2734      2737      2733      2731      2734      2735
      2733      2731      2734      2736      2733      2731      2734      2737
      2734      2737      2740      2741      2734      2737      2740      2742
      2734      2737      2740      2743      2735      2734      2737      2738
      2735      2734      2737      2739      2735      2734      2737      2740
      2736      2734      2737      2738      2736      2734      2737      2739
      2736      2734      2737      2740      2737      2740      2743      2744
      2737      2740      2743      2745      2737      2740      2743      2746
      2738      2737      2740      2741      2738      2737      2740      2742
      2738      2737      2740      2743      2739      2737      2740      2741
      2739      2737      2740      2742      2739      2737      2740      2743
      2740      2743      2746      2747      2740      2743      2746      2748
      2740      2743      2746      2749      2741      2740      2743      2744
      2741      2740      2743      2745      2741      2740      2743      2746
      2742      2740      2743      2744      2742      2740      2743      2745
      2742      2740      2743      2746      2743      2746      2749      2750
      2743      2746      2749      2751      2743      2746      2749      2752
      2744      2743      2746      2747      2744      2743      2746      2748
      2744      2743      2746      2749      2745      2743      2746      2747
      2745      2743      2746      2748      2745      2743      2746      2749
      2746      2749      2752      2753      2746      2749      2752      2754
      2746      2749      2752      2755      2747      2746      2749      2750
      2747      2746      2749      2751      2747      2746      2749      2752
      2748      2746      2749      2750      2748      2746      2749      2751
      2748      2746      2749      2752      2749      2752      2755      2756
      2749      2752      2755      2757      2749      2752      2755      2758
      2750      2749      2752      2753      2750      2749      2752      2754
      2750      2749      2752      2755      2751      2749      2752      2753
      2751      2749      2752      2754      2751      2749      2752      2755
      2752      2755      2758      2759      2752      2755      2758      2760
      2752      2755      2758      2761      2753      2752      2755      2756
      2753      2752      2755      2757      2753      2752      2755      2758
      2754      2752      2755      2756      2754      2752      2755      2757
      2754      2752      2755      2758      2755      2758      2761      2762
      2755      2758      2761      2763      2755      2758      2761      2764
      2756      2755      2758      2759      2756      2755      2758      2760
      2756      2755      2758      2761      2757      2755      2758      2759
      2757      2755      2758      2760      2757      2755      2758      2761
      2758      2761      2764      2765      2758      2761      2764      2766
      2758      2761      2764      2767      2759      2758      2761      2762
      2759      2758      2761      2763      2759      2758      2761      2764
      2760      2758      2761      2762      2760      2758      2761      2763
      2760      2758      2761      2764      2761      2764      2767      2768
      2761      2764      2767      2769      2761      2764      2767      2770
      2762      2761      2764      2765      2762      2761      2764      2766
      2762      2761      2764      2767      2763      2761      2764      2765
      2763      2761      2764      2766      2763      2761      2764      2767
      2764      2767      2770      2771      2764      2767      2770      2772
      2764      2767      2770      2773      2765      2764      2767      2768
      2765      2764      2767      2769      2765      2764      2767      2770
      2766      2764      2767      2768      2766      2764      2767      2769
      2766      2764      2767      2770      2767      2770      2773      2774
      2767      2770      2773      2775      2767      2770      2773      2776
      2768      2767      2770      2771      2768      2767      2770      2772
      2768      2767      2770      2773      2769      2767      2770      2771
      2769      2767      2770      2772      2769      2767      2770      2773
      2770      2773      2776      2777      2770      2773      2776      2778
      2770      2773      2776      2779      2771      2770      2773      2774
      2771      2770      2773      2775      2771      2770      2773      2776
      2772      2770      2773      2774      2772      2770      2773      2775
      2772      2770      2773      2776      2773      2776      2779      2780
      2773      2776      2779      2781      2773      2776      2779      2782
      2774      2773      2776      2777      2774      2773      2776      2778
      2774      2773      2776      2779      2775      2773      2776      2777
      2775      2773      2776      2778      2775      2773      2776      2779
      2776      2779      2782      2783      2776      2779      2782      2784
      2776      2779      2782      2785      2777      2776      2779      2780
      2777      2776      2779      2781      2777      2776      2779      2782
      2778      2776      2779      2780      2778      2776      2779      2781
      2778      2776      2779      2782      2779      2782      2785      2786
      2779      2782      2785      2787      2779      2782      2785      2788
      2780      2779      2782      2783      2780      2779      2782      2784
      2780      2779      2782      2785      2781      2779      2782      2783
      2781      2779      2782      2784      2781      2779      2782      2785
      2782      2785      2788      2789      2782      2785      2788      2790
      2782      2785      2788      2791      2783      2782      2785      2786
      2783      2782      2785      2787      2783      2782      2785      2788
      2784      2782      2785      2786      2784      2782      2785      2787
      2784      2782      2785      2788      2785      2788      2791      2792
      2785      2788      2791      2793      2785      2788      2791      2794
      2786      2785      2788      2789      2786      2785      2788      2790
      2786      2785      2788      2791      2787      2785      2788      2789
      2787      2785      2788      2790      2787      2785      2788      2791
      2788      2791      2794      2795      2788      2791      2794      2796
      2788      2791      2794      2797      2789      2788      2791      2792
      2789      2788      2791      2793      2789      2788      2791      2794
      2790      2788      2791      2792      2790      2788      2791      2793
      2790      2788      2791      2794      2791      2794      2797      2798
      2791      2794      2797      2799      2791      2794      2797      2800
      2792      2791      2794      2795      2792      2791      2794      2796
      2792      2791      2794      2797      2793      2791      2794      2795
      2793      2791      2794      2796      2793      2791      2794      2797
      2794      2797      2800      2801      2794      2797      2800      2802
      2794      2797      2800      2803      2795      2794      2797      2798
      2795      2794      2797      2799      2795      2794      2797      2800
      2796      2794      2797      2798      2796      2794      2797      2799
      2796      2794      2797      2800      2797      2800      2803      2804
      2797      2800      2803      2805      2797      2800      2803      2806
      2798      2797      2800      2801      2798      2797      2800      2802
      2798      2797      2800      2803      2799      2797      2800      2801
      2799      2797      2800      2802      2799      2797      2800      2803
      2800      2803      2806      2807      2800      2803      2806      2808
      2800      2803      2806      2809      2801      2800      2803      2804
      2801      2800      2803      2805      2801      2800      2803      2806
      2802      2800      2803      2804      2802      2800      2803      2805
      2802      2800      2803      2806      2803      2806      2809      2810
      2803      2806      2809      2811      2803      2806      2809      2812
      2804      2803      2806      2807      2804      2803      2806      2808
      2804      2803      2806      2809      2805      2803      2806      2807
      2805      2803      2806      2808      2805      2803      2806      2809
      2806      2809      2812      2813      2806      2809      2812      2814
      2806      2809      2812      2815      2807      2806      2809      2810
      2807      2806      2809      2811      2807      2806      2809      2812
      2808      2806      2809      2810      2808      2806      2809      2811
      2808      2806      2809      2812      2809      2812      2815      2816
      2809      2812      2815      2817      2809      2812      2815      2818
      2810      2809      2812      2813      2810      2809      2812      2814
      2810      2809      2812      2815      2811      2809      2812      2813
      2811      2809      2812      2814      2811      2809      2812      2815
      2812      2815      2818      2819      2812      2815      2818      2820
      2812      2815      2818      2821      2813      2812      2815      2816
      2813      2812      2815      2817      2813      2812      2815      2818
      2814      2812      2815      2816      2814      2812      2815      2817
      2814      2812      2815      2818      2815      2818      2821      2822
      2815      2818      2821      2823      2815      2818      2821      2824
      2816      2815      2818      2819      2816      2815      2818      2820
      2816      2815      2818      2821      2817      2815      2818      2819
      2817      2815      2818      2820      2817      2815      2818      2821
      2818      2821      2824      2825      2818      2821      2824      2826
      2818      2821      2824      2827      2819      2818      2821      2822
      2819      2818      2821      2823      2819      2818      2821      2824
      2820      2818      2821      2822      2820      2818      2821      2823
      2820      2818      2821      2824      2821      2824      2827      2828
      2821      2824      2827      2829      2821      2824      2827      2830
      2822      2821      2824      2825      2822      2821      2824      2826
      2822      2821      2824      2827      2823      2821      2824      2825
      2823      2821      2824      2826      2823      2821      2824      2827
      2824      2827      2830      2831      2824      2827      2830      2832
      2824      2827      2830      2833      2825      2824      2827      2828
      2825      2824      2827      2829      2825      2824      2827      2830
      2826      2824      2827      2828      2826      2824      2827      2829
      2826      2824      2827      2830      2827      2830      2833      2834
      2827      2830      2833      2835      2827      2830      2833      2836
      2828      2827      2830      2831      2828      2827      2830      2832
      2828      2827      2830      2833      2829      2827      2830      2831
      2829      2827      2830      2832      2829      2827      2830      2833
      2830      2833      2836      2837      2830      2833      2836      2838
      2830      2833      2836      2839      2831      2830      2833      2834
      2831      2830      2833      2835      2831      2830      2833      2836
      2832      2830      2833      2834      2832      2830      2833      2835
      2832      2830      2833      2836      2833      2836      2839      2840
      2833      2836      2839      2841      2833      2836      2839      2842
      2834      2833      2836      2837      2834      2833      2836      2838
      2834      2833      2836      2839      2835      2833      2836      2837
      2835      2833      2836      2838      2835      2833      2836      2839
      2836      2839      2842      2843      2836      2839      2842      2844
      2836      2839      2842      2845      2837      2836      2839      2840
      2837      2836      2839      2841      2837      2836      2839      2842
      2838      2836      2839      2840      2838      2836      2839      2841
      2838      2836      2839      2842      2839      2842      2845      2846
      2839      2842      2845      2847      2839      2842      2845      2848
      2840      2839      2842      2843      2840      2839      2842      2844
      2840      2839      2842      2845      2841      2839      2842      2843
      2841      2839      2842      2844      2841      2839      2842      2845
      2842      2845      2848      2849      2842      2845      2848      2850
      2842      2845      2848      2851      2843      2842      2845      2846
      2843      2842      2845      2847      2843      2842      2845      2848
      2844      2842      2845      2846      2844      2842      2845      2847
      2844      2842      2845      2848      2845      2848      2851      2852
      2845      2848      2851      2853      2845      2848      2851      2854
      2846      2845      2848      2849      2846      2845      2848      2850
      2846      2845      2848      2851      2847      2845      2848      2849
      2847      2845      2848      2850      2847      2845      2848      2851
      2848      2851      2854      2855      2848      2851      2854      2856
      2848      2851      2854      2857      2849      2848      2851      2852
      2849      2848      2851      2853      2849      2848      2851      2854
      2850      2848      2851      2852      2850      2848      2851      2853
      2850      2848      2851      2854      2851      2854      2857      2858
      2851      2854      2857      2859      2851      2854      2857      2860
      2852      2851      2854      2855      2852      2851      2854      2856
      2852      2851      2854      2857      2853      2851      2854      2855
      2853      2851      2854      2856      2853      2851      2854      2857
      2854      2857      2860      2861      2854      2857      2860      2862
      2854      2857      2860      2863      2855      2854      2857      2858
      2855      2854      2857      2859      2855      2854      2857      2860
      2856      2854      2857      2858      2856      2854      2857      2859
      2856      2854      2857      2860      2857      2860      2863      2864
      2857      2860      2863      2865      2857      2860      2863      2866
      2858      2857      2860      2861      2858      2857      2860      2862
      2858      2857      2860      2863      2859      2857      2860      2861
      2859      2857      2860      2862      2859      2857      2860      2863
      2860      2863      2866      2867      2860      2863      2866      2868
      2860      2863      2866      2869      2861      2860      2863      2864
      2861      2860      2863      2865      2861      2860      2863      2866
      2862      2860      2863      2864      2862      2860      2863      2865
      2862      2860      2863      2866      2863      2866      2869      2870
      2863      2866      2869      2871      2863      2866      2869      2872
      2864      2863      2866      2867      2864      2863      2866      2868
      2864      2863      2866      2869      2865      2863      2866      2867
      2865      2863      2866      2868      2865      2863      2866      2869
      2866      2869      2872      2873      2866      2869      2872      2874
      2866      2869      2872      2875      2867      2866      2869      2870
      2867      2866      2869      2871      2867      2866      2869      2872
      2868      2866      2869      2870      2868      2866      2869      2871
      2868      2866      2869      2872      2869      2872      2875      2876
      2869      2872      2875      2877      2869      2872      2875      2878
      2870      2869      2872      2873      2870      2869      2872      2874
      2870      2869      2872      2875      2871      2869      2872      2873
      2871      2869      2872      2874      2871      2869      2872      2875
      2872      2875      2878      2879      2872      2875      2878      2880
      2872      2875      2878      2881      2873      2872      2875      2876
      2873      2872      2875      2877      2873      2872      2875      2878
      2874      2872      2875      2876      2874      2872      2875      2877
      2874      2872      2875      2878      2875      2878      2881      2882
      2875      2878      2881      2883      2875      2878      2881      2884
      2876      2875      2878      2879      2876      2875      2878      2880
      2876      2875      2878      2881      2877      2875      2878      2879
      2877      2875      2878      2880      2877      2875      2878      2881
      2878      2881      2884      2885      2878      2881      2884      2886
      2878      2881      2884      2887      2879      2878      2881      2882
      2879      2878      2881      2883      2879      2878      2881      2884
      2880      2878      2881      2882      2880      2878      2881      2883
      2880      2878      2881      2884      2881      2884      2887      2888
      2881      2884      2887      2889      2881      2884      2887      2890
      2882      2881      2884      2885      2882      2881      2884      2886
      2882      2881      2884      2887      2883      2881      2884      2885
      2883      2881      2884      2886      2883      2881      2884      2887
      2884      2887      2890      2891      2884      2887      2890      2892
      2884      2887      2890      2893      2885      2884      2887      2888
      2885      2884      2887      2889      2885      2884      2887      2890
      2886      2884      2887      2888      2886      2884      2887      2889
      2886      2884      2887      2890      2887      2890      2893      2894
      2887      2890      2893      2895      2887      2890      2893      2896
      2888      2887      2890      2891      2888      2887      2890      2892
      2888      2887      2890      2893      2889      2887      2890      2891
      2889      2887      2890      2892      2889      2887      2890      2893
      2891      2890      2893      2894      2891      2890      2893      2895
      2891      2890      2893      2896      2892      2890      2893      2894
      2892      2890      2893      2895      2892      2890      2893      2896
      2897      2901      2904      2905      2897      2901      2904      2906
      2897      2901      2904      2907      2898      2897      2901      2902
      2898      2897      2901      2903      2898      2897      2901      2904
      2899      2897      2901      2902      2899      2897      2901      2903
      2899      2897      2901      2904      2900      2897      2901      2902
      2900      2897      2901      2903      2900      2897      2901      2904
      2901      2904      2907      2908      2901      2904      2907      2909
      2901      2904      2907      2910      2902      2901      2904      2905
      2902      2901      2904      2906      2902      2901      2904      2907
      2903      2901      2904      2905      2903      2901      2904      2906
      2903      2901      2904      2907      2904      2907      2910      2911
      2904      2907      2910      2912      2904      2907      2910      2913
      2905      2904      2907      2908      2905      2904      2907      2909
      2905      2904      2907      2910      2906      2904      2907      2908
      2906      2904      2907      2909      2906      2904      2907      2910
      2907      2910      2913      2914      2907      2910      2913      2915
      2907      2910      2913      2916      2908      2907      2910      2911
      2908      2907      2910      2912      2908      2907      2910      2913
      2909      2907      2910      2911      2909      2907      2910      2912
      2909      2907      2910      2913      2910      2913      2916      2917
      2910      2913      2916      2918      2910      2913      2916      2919
      2911      2910      2913      2914      2911      2910      2913      2915
      2911      2910      2913      2916      2912      2910      2913      2914
      2912      2910      2913      2915      2912      2910      2913      2916
      2913      2916      2919      2920      2913      2916      2919      2921
      2913      2916      2919      2922      2914      2913      2916      2917
      2914      2913      2916      2918      2914      2913      2916      2919
      2915      2913      2916      2917      2915      2913      2916      2918
      2915      2913      2916      2919      2916      2919      2922      2923
      2916      2919      2922      2924      2916      2919      2922      2925
      2917      2916      2919      2920      2917      2916      2919      2921
      2917      2916      2919      2922      2918      2916      2919      2920
      2918      2916      2919      2921      2918      2916      2919      2922
      2919      2922      2925      2926      2919      2922      2925      2927
      2919      2922      2925      2928      2920      2919      2922      2923
      2920      2919      2922      2924      2920      2919      2922      2925
      2921      2919      2922      2923      2921      2919      2922      2924
      2921      2919      2922      2925      2922      2925      2928      2929
      2922      2925      2928      2930      2922      2925      2928      2931
      2923      2922      2925      2926      2923      2922      2925      2927
      2923      2922      2925      2928      2924      2922      2925      2926
      2924      2922      2925      2927      2924      2922      2925      2928
      2925      2928      2931      2932      2925      2928      2931      2933
      2925      2928      2931      2934      2926      2925      2928      2929
      2926      2925      2928      2930      2926      2925      2928      2931
      2927      2925      2928      2929      2927      2925      2928      2930
      2927      2925      2928      2931      2928      2931      2934      2935
      2928      2931      2934      2936      2928      2931      2934      2937
      2929      2928      2931      2932      2929      2928      2931      2933
      2929      2928      2931      2934      2930      2928      2931      2932
      2930      2928      2931      2933      2930      2928      2931      2934
      2931      2934      2937      2938      2931      2934      2937      2939
      2931      2934      2937      2940      2932      2931      2934      2935
      2932      2931      2934      2936      2932      2931      2934      2937
      2933      2931      2934      2935      2933      2931      2934      2936
      2933      2931      2934      2937      2934      2937      2940      2941
      2934      2937      2940      2942      2934      2937      2940      2943
      2935      2934      2937      2938      2935      2934      2937      2939
      2935      2934      2937      2940      2936      2934      2937      2938
      2936      2934      2937      2939      2936      2934      2937      2940
      2937      2940      2943      2944      2937      2940      2943      2945
      2937      2940      2943      2946      2938      2937      2940      2941
      2938      2937      2940      2942      2938      2937      2940      2943
      2939      2937      2940      2941      2939      2937      2940      2942
      2939      2937      2940      2943      2940      2943      2946      2947
      2940      2943      2946      2948      2940      2943      2946      2949
      2941      2940      2943      2944      2941      2940      2943      2945
      2941      2940      2943      2946      2942      2940      2943      2944
      2942      2940      2943      2945      2942      2940      2943      2946
      2943      2946      2949      2950      2943      2946      2949      2951
      2943      2946      2949      2952      2944      2943      2946      2947
      2944      2943      2946      2948      2944      2943      2946      2949
      2945      2943      2946      2947      2945      2943      2946      2948
      2945      2943      2946      2949      2946      2949      2952      2953
      2946      2949      2952      2954      2946      2949      2952      2955
      2947      2946      2949      2950      2947      2946      2949      2951
      2947      2946      2949      2952      2948      2946      2949      2950
      2948      2946      2949      2951      2948      2946      2949      2952
      2949      2952      2955      2956      2949      2952      2955      2957
      2949      2952      2955      2958      2950      2949      2952      2953
      2950      2949      2952      2954      2950      2949      2952      2955
      2951      2949      2952      2953      2951      2949      2952      2954
      2951      2949      2952      2955      2952      2955      2958      2959
      2952      2955      2958      2960      2952      2955      2958      2961
      2953      2952      2955      2956      2953      2952      2955      2957
      2953      2952      2955      2958      2954      2952      2955      2956
      2954      2952      2955      2957      2954      2952      2955      2958
      2955      2958      2961      2962      2955      2958      2961      2963
      2955      2958      2961      2964      2956      2955      2958      2959
      2956      2955      2958      2960      2956      2955      2958      2961
      2957      2955      2958      2959      2957      2955      2958      2960
      2957      2955      2958      2961      2958      2961      2964      2965
      2958      2961      2964      2966      2958      2961      2964      2967
      2959      2958      2961      2962      2959      2958      2961      2963
      2959      2958      2961      2964      2960      2958      2961      2962
      2960      2958      2961      2963      2960      2958      2961      2964
      2961      2964      2967      2968      2961      2964      2967      2969
      2961      2964      2967      2970      2962      2961      2964      2965
      2962      2961      2964      2966      2962      2961      2964      2967
      2963      2961      2964      2965      2963      2961      2964      2966
      2963      2961      2964      2967      2964      2967      2970      2971
      2964      2967      2970      2972      2964      2967      2970      2973
      2965      2964      2967      2968      2965      2964      2967      2969
      2965      2964      2967      2970      2966      2964      2967      2968
      2966      2964      2967      2969      2966      2964      2967      2970
      2967      2970      2973      2974      2967      2970      2973      2975
      2967      2970      2973      2976      2968      2967      2970      2971
      2968      2967      2970      2972      2968      2967      2970      2973
      2969      2967      2970      2971      2969      2967      2970      2972
      2969      2967      2970      2973      2970      2973      2976      2977
      2970      2973      2976      2978      2970      2973      2976      2979
      2971      2970      2973      2974      2971      2970      2973      2975
      2971      2970      2973      2976      2972      2970      2973      2974
      2972      2970      2973      2975      2972      2970      2973      2976
      2973      2976      2979      2980      2973      2976      2979      2981
      2973      2976      2979      2982      2974      2973      2976      2977
      2974      2973      2976      2978      2974      2973      2976      2979
      2975      2973      2976      2977      2975      2973      2976      2978
      2975      2973      2976      2979      2976      2979      2982      2983
      2976      2979      2982      2984      2976      2979      2982      2985
      2977      2976      2979      2980      2977      2976      2979      2981
      2977      2976      2979      2982      2978      2976      2979      2980
      2978      2976      2979      2981      2978      2976      2979      2982
      2979      2982      2985      2986      2979      2982      2985      2987
      2979      2982      2985      2988      2980      2979      2982      2983
      2980      2979      2982      2984      2980      2979      2982      2985
      2981      2979      2982      2983      2981      2979      2982      2984
      2981      2979      2982      2985      2982      2985      2988      2989
      2982      2985      2988      2990      2982      2985      2988      2991
      2983      2982      2985      2986      2983      2982      2985      2987
      2983      2982      2985      2988      2984      2982      2985      2986
      2984      2982      2985      2987      2984      2982      2985      2988
      2985      2988      2991      2992      2985      2988      2991      2993
      2985      2988      2991      2994      2986      2985      2988      2989
      2986      2985      2988      2990      2986      2985      2988      2991
      2987      2985      2988      2989      2987      2985      2988      2990
      2987      2985      2988      2991      2988      2991      2994      2995
      2988      2991      2994      2996      2988      2991      2994      2997
      2989      2988      2991      2992      2989      2988      2991      2993
      2989      2988      2991      2994      2990      2988      2991      2992
      2990      2988      2991      2993      2990      2988      2991      2994
      2991      2994      2997      2998      2991      2994      2997      2999
      2991      2994      2997      3000      2992      2991      2994      2995
      2992      2991      2994      2996      2992      2991      2994      2997
      2993      2991      2994      2995      2993      2991      2994      2996
      2993      2991      2994      2997      2994      2997      3000      3001
      2994      2997      3000      3002      2994      2997      3000      3003
      2995      2994      2997      2998      2995      2994      2997      2999
      2995      2994      2997      3000      2996      2994      2997      2998
      2996      2994      2997      2999      2996      2994      2997      3000
      2997      3000      3003      3004      2997      3000      3003      3005
      2997      3000      3003      3006      2998      2997      3000      3001
      2998      2997      3000      3002      2998      2997      3000      3003
      2999      2997      3000      3001      2999      2997      3000      3002
      2999      2997      3000      3003      3000      3003      3006      3007
      3000      3003      3006      3008      3000      3003      3006      3009
      3001      3000      3003      3004      3001      3000      3003      3005
      3001      3000      3003      3006      3002      3000      3003      3004
      3002      3000      3003      3005      3002      3000      3003      3006
      3003      3006      3009      3010      3003      3006      3009      3011
      3003      3006      3009      3012      3004      3003      3006      3007
      3004      3003      3006      3008      3004      3003      3006      3009
      3005      3003      3006      3007      3005      3003      3006      3008
      3005      3003      3006      3009      3006      3009      3012      3013
      3006      3009      3012      3014      3006      3009      3012      3015
      3007      3006      3009      3010      3007      3006      3009      3011
      3007      3006      3009      3012      3008      3006      3009      3010
      3008      3006      3009      3011      3008      3006      3009      3012
      3009      3012      3015      3016      3009      3012      3015      3017
      3009      3012      3015      3018      3010      3009      3012      3013
      3010      3009      3012      3014      3010      3009      3012      3015
      3011      3009      3012      3013      3011      3009      3012      3014
      3011      3009      3012      3015      3012      3015      3018      3019
      3012      3015      3018      3020      3012      3015      3018      3021
      3013      3012      3015      3016      3013      3012      3015      3017
      3013      3012      3015      3018      3014      3012      3015      3016
      3014      3012      3015      3017      3014      3012      3015      3018
      3015      3018      3021      3022      3015      3018      3021      3023
      3015      3018      3021      3024      3016      3015      3018      3019
      3016      3015      3018      3020      3016      3015      3018      3021
      3017      3015      3018      3019      3017      3015      3018      3020
      3017      3015      3018      3021      3018      3021      3024      3025
      3018      3021      3024      3026      3018      3021      3024      3027
      3019      3018      3021      3022      3019      3018      3021      3023
      3019      3018      3021      3024      3020      3018      3021      3022
      3020      3018      3021      3023      3020      3018      3021      3024
      3021      3024      3027      3028      3021      3024      3027      3029
      3021      3024      3027      3030      3022      3021      3024      3025
      3022      3021      3024      3026      3022      3021      3024      3027
      3023      3021      3024      3025      3023      3021      3024      3026
      3023      3021      3024      3027      3024      3027      3030      3031
      3024      3027      3030      3032      3024      3027      3030      3033
      3025      3024      3027      3028      3025      3024      3027      3029
      3025      3024      3027      3030      3026      3024      3027      3028
      3026      3024      3027      3029      3026      3024      3027      3030
      3027      3030      3033      3034      3027      3030      3033      3035
      3027      3030      3033      3036      3028      3027      3030      3031
      3028      3027      3030      3032      3028      3027      3030      3033
      3029      3027      3030      3031      3029      3027      3030      3032
      3029      3027      3030      3033      3030      3033      3036      3037
      3030      3033      3036      3038      3030      3033      3036      3039
      3031      3030      3033      3034      3031      3030      3033      3035
      3031      3030      3033      3036      3032      3030      3033      3034
      3032      3030      3033      3035      3032      3030      3033      3036
      3033      3036      3039      3040      3033      3036      3039      3041
      3033      3036      3039      3042      3034      3033      3036      3037
      3034      3033      3036      3038      3034      3033      3036      3039
      3035      3033      3036      3037      3035      3033      3036      3038
      3035      3033      3036      3039      3036      3039      3042      3043
      3036      3039      3042      3044      3036      3039      3042      3045
      3037      3036      3039      3040      3037      3036      3039      3041
      3037      3036      3039      3042      3038      3036      3039      3040
      3038      3036      3039      3041      3038      3036      3039      3042
      3039      3042      3045      3046      3039      3042      3045      3047
      3039      3042      3045      3048      3040      3039      3042      3043
      3040      3039      3042      3044      3040      3039      3042      3045
      3041      3039      3042      3043      3041      3039      3042      3044
      3041      3039      3042      3045      3042      3045      3048      3049
      3042      3045      3048      3050      3042      3045      3048      3051
      3043      3042      3045      3046      3043      3042      3045      3047
      3043      3042      3045      3048      3044      3042      3045      3046
      3044      3042      3045      3047      3044      3042      3045      3048
      3045      3048      3051      3052      3045      3048      3051      3053
      3045      3048      3051      3054      3046      3045      3048      3049
      3046      3045      3048      3050      3046      3045      3048      3051
      3047      3045      3048      3049      3047      3045      3048      3050
      3047      3045      3048      3051      3048      3051      3054      3055
      3048      3051      3054      3056      3048      3051      3054      3057
      3049      3048      3051      3052      3049      3048      3051      3053
      3049      3048      3051      3054      3050      3048      3051      3052
      3050      3048      3051      3053      3050      3048      3051      3054
      3051      3054      3057      3058      3051      3054      3057      3059
      3051      3054      3057      3060      3052      3051      3054      3055
      3052      3051      3054      3056      3052      3051      3054      3057
      3053      3051      3054      3055      3053      3051      3054      3056
      3053      3051      3054      3057      3054      3057      3060      3061
      3054      3057      3060      3062      3054      3057      3060      3063
      3055      3054      3057      3058      3055      3054      3057      3059
      3055      3054      3057      3060      3056      3054      3057      3058
      3056      3054      3057      3059      3056      3054      3057      3060
      3057      3060      3063      3064      3057      3060      3063      3065
      3057      3060      3063      3066      3058      3057      3060      3061
      3058      3057      3060      3062      3058      3057      3060      3063
      3059      3057      3060      3061      3059      3057      3060      3062
      3059      3057      3060      3063      3060      3063      3066      3067
      3060      3063      3066      3068      3060      3063      3066      3069
      3061      3060      3063      3064      3061      3060      3063      3065
      3061      3060      3063      3066      3062      3060      3063      3064
      3062      3060      3063      3065      3062      3060      3063      3066
      3063      3066      3069      3070      3063      3066      3069      3071
      3063      3066      3069      3072      3064      3063      3066      3067
      3064      3063      3066      3068      3064      3063      3066      3069
      3065      3063      3066      3067      3065      3063      3066      3068
      3065      3063      3066      3069      3066      3069      3072      3073
      3066      3069      3072      3074      3066      3069      3072      3075
      3067      3066      3069      3070      3067      3066      3069      3071
      3067      3066      3069      3072      3068      3066      3069      3070
      3068      3066      3069      3071      3068      3066      3069      3072
      3069      3072      3075      3076      3069      3072      3075      3077
      3069      3072      3075      3078      3070      3069      3072      3073
      3070      3069      3072      3074      3070      3069      3072      3075
      3071      3069      3072      3073      3071      3069      3072      3074
      3071      3069      3072      3075      3072      3075      3078      3079
      3072      3075      3078      3080      3072      3075      3078      3081
      3073      3072      3075      3076      3073      3072      3075      3077
      3073      3072      3075      3078      3074      3072      3075      3076
      3074      3072      3075      3077      3074      3072      3075      3078
      3075      3078      3081      3082      3075      3078      3081      3083
      3075      3078      3081      3084      3076      3075      3078      3079
      3076      3075      3078      3080      3076      3075      3078      3081
      3077      3075      3078      3079      3077      3075      3078      3080
      3077      3075      3078      3081      3078      3081      3084      3085
      3078      3081      3084      3086      3078      3081      3084      3087
      3079      3078      3081      3082      3079      3078      3081      3083
      3079      3078      3081      3084      3080      3078      3081      3082
      3080      3078      3081      3083      3080      3078      3081      3084
      3081      3084      3087      3088      3081      3084      3087      3089
      3081      3084      3087      3090      3082      3081      3084      3085
      3082      3081      3084      3086      3082      3081      3084      3087
      3083      3081      3084      3085      3083      3081      3084      3086
      3083      3081      3084      3087      3084      3087      3090      3091
      3084      3087      3090      3092      3084      3087      3090      3093
      3085      3084      3087      3088      3085      3084      3087      3089
      3085      3084      3087      3090      3086      3084      3087      3088
      3086      3084      3087      3089      3086      3084      3087      3090
      3087      3090      3093      3094      3087      3090      3093      3095
      3087      3090      3093      3096      3088      3087      3090      3091
      3088      3087      3090      3092      3088      3087      3090      3093
      3089      3087      3090      3091      3089      3087      3090      3092
      3089      3087      3090      3093      3090      3093      3096      3097
      3090      3093      3096      3098      3090      3093      3096      3099
      3091      3090      3093      3094      3091      3090      3093      3095
      3091      3090      3093      3096      3092      3090      3093      3094
      3092      3090      3093      3095      3092      3090      3093      3096
      3093      3096      3099      3100      3093      3096      3099      3101
      3093      3096      3099      3102      3094      3093      3096      3097
      3094      3093      3096      3098      3094      3093      3096      3099
      3095      3093      3096      3097      3095      3093      3096      3098
      3095      3093      3096      3099      3096      3099      3102      3103
      3096      3099      3102      3104      3096      3099      3102      3105
      3097      3096      3099      3100      3097      3096      3099      3101
      3097      3096      3099      3102      3098      3096      3099      3100
      3098      3096      3099      3101      3098      3096      3099      3102
      3099      3102      3105      3106      3099      3102      3105      3107
      3099      3102      3105      3108      3100      3099      3102      3103
      3100      3099      3102      3104      3100      3099      3102      3105
      3101      3099      3102      3103      3101      3099      3102      3104
      3101      3099      3102      3105      3102      3105      3108      3109
      3102      3105      3108      3110      3102      3105      3108      3111
      3103      3102      3105      3106      3103      3102      3105      3107
      3103      3102      3105      3108      3104      3102      3105      3106
      3104      3102      3105      3107      3104      3102      3105      3108
      3105      3108      3111      3112      3105      3108      3111      3113
      3105      3108      3111      3114      3106      3105      3108      3109
      3106      3105      3108      3110      3106      3105      3108      3111
      3107      3105      3108      3109      3107      3105      3108      3110
      3107      3105      3108      3111      3108      3111      3114      3115
      3108      3111      3114      3116      3108      3111      3114      3117
      3109      3108      3111      3112      3109      3108      3111      3113
      3109      3108      3111      3114      3110      3108      3111      3112
      3110      3108      3111      3113      3110      3108      3111      3114
      3111      3114      3117      3118      3111      3114      3117      3119
      3111      3114      3117      3120      3112      3111      3114      3115
      3112      3111      3114      3116      3112      3111      3114      3117
      3113      3111      3114      3115      3113      3111      3114      3116
      3113      3111      3114      3117      3114      3117      3120      3121
      3114      3117      3120      3122      3114      3117      3120      3123
      3115      3114      3117      3118      3115      3114      3117      3119
      3115      3114      3117      3120      3116      3114      3117      3118
      3116      3114      3117      3119      3116      3114      3117      3120
      3117      3120      3123      3124      3117      3120      3123      3125
      3117      3120      3123      3126      3118      3117      3120      3121
      3118      3117      3120      3122      3118      3117      3120      3123
      3119      3117      3120      3121      3119      3117      3120      3122
      3119      3117      3120      3123      3120      3123      3126      3127
      3120      3123      3126      3128      3120      3123      3126      3129
      3121      3120      3123      3124      3121      3120      3123      3125
      3121      3120      3123      3126      3122      3120      3123      3124
      3122      3120      3123      3125      3122      3120      3123      3126
      3123      3126      3129      3130      3123      3126      3129      3131
      3123      3126      3129      3132      3124      3123      3126      3127
      3124      3123      3126      3128      3124      3123      3126      3129
      3125      3123      3126      3127      3125      3123      3126      3128
      3125      3123      3126      3129      3126      3129      3132      3133
      3126      3129      3132      3134      3126      3129      3132      3135
      3127      3126      3129      3130      3127      3126      3129      3131
      3127      3126      3129      3132      3128      3126      3129      3130
      3128      3126      3129      3131      3128      3126      3129      3132
      3129      3132      3135      3136      3129      3132      3135      3137
      3129      3132      3135      3138      3130      3129      3132      3133
      3130      3129      3132      3134      3130      3129      3132      3135
      3131      3129      3132      3133      3131      3129      3132      3134
      3131      3129      3132      3135      3132      3135      3138      3139
      3132      3135      3138      3140      3132      3135      3138      3141
      3133      3132      3135      3136      3133      3132      3135      3137
      3133      3132      3135      3138      3134      3132      3135      3136
      3134      3132      3135      3137      3134      3132      3135      3138
      3135      3138      3141      3142      3135      3138      3141      3143
      3135      3138      3141      3144      3136      3135      3138      3139
      3136      3135      3138      3140      3136      3135      3138      3141
      3137      3135      3138      3139      3137      3135      3138      3140
      3137      3135      3138      3141      3138      3141      3144      3145
      3138      3141      3144      3146      3138      3141      3144      3147
      3139      3138      3141      3142      3139      3138      3141      3143
      3139      3138      3141      3144      3140      3138      3141      3142
      3140      3138      3141      3143      3140      3138      3141      3144
      3141      3144      3147      3148      3141      3144      3147      3149
      3141      3144      3147      3150      3142      3141      3144      3145
      3142      3141      3144      3146      3142      3141      3144      3147
      3143      3141      3144      3145      3143      3141      3144      3146
      3143      3141      3144      3147      3144      3147      3150      3151
      3144      3147      3150      3152      3144      3147      3150      3153
      3145      3144      3147      3148      3145      3144      3147      3149
      3145      3144      3147      3150      3146      3144      3147      3148
      3146      3144      3147      3149      3146      3144      3147      3150
      3147      3150      3153      3154      3147      3150      3153      3155
      3147      3150      3153      3156      3148      3147      3150      3151
      3148      3147      3150      3152      3148      3147      3150      3153
      3149      3147      3150      3151      3149      3147      3150      3152
      3149      3147      3150      3153      3150      3153      3156      3157
      3150      3153      3156      3158      3150      3153      3156      3159
      3151      3150      3153      3154      3151      3150      3153      3155
      3151      3150      3153      3156      3152      3150      3153      3154
      3152      3150      3153      3155      3152      3150      3153      3156
      3153      3156      3159      3160      3153      3156      3159      3161
      3153      3156      3159      3162      3154      3153      3156      3157
      3154      3153      3156      3158      3154      3153      3156      3159
      3155      3153      3156      3157      3155      3153      3156      3158
      3155      3153      3156      3159      3156      3159      3162      3163
      3156      3159      3162      3164      3156      3159      3162      3165
      3157      3156      3159      3160      3157      3156      3159      3161
      3157      3156      3159      3162      3158      3156      3159      3160
      3158      3156      3159      3161      3158      3156      3159      3162
      3159      3162      3165      3166      3159      3162      3165      3167
      3159      3162      3165      3168      3160      3159      3162      3163
      3160      3159      3162      3164      3160      3159      3162      3165
      3161      3159      3162      3163      3161      3159      3162      3164
      3161      3159      3162      3165      3162      3165      3168      3169
      3162      3165      3168      3170      3162      3165      3168      3171
      3163      3162      3165      3166      3163      3162      3165      3167
      3163      3162      3165      3168      3164      3162      3165      3166
      3164      3162      3165      3167      3164      3162      3165      3168
      3165      3168      3171      3172      3165      3168      3171      3173
      3165      3168      3171      3174      3166      3165      3168      3169
      3166      3165      3168      3170      3166      3165      3168      3171
      3167      3165      3168      3169      3167      3165      3168      3170
      3167      3165      3168      3171      3168      3171      3174      3175
      3168      3171      3174      3176      3168      3171      3174      3177
      3169      3168      3171      3172      3169      3168      3171      3173
      3169      3168      3171      3174      3170      3168      3171      3172
      3170      3168      3171      3173      3170      3168      3171      3174
      3171      3174      3177      3178      3171      3174      3177      3179
      3171      3174      3177      3180      3172      3171      3174      3175
      3172      3171      3174      3176      3172      3171      3174      3177
      3173      3171      3174      3175      3173      3171      3174      3176
      3173      3171      3174      3177      3174      3177      3180      3181
      3174      3177      3180      3182      3174      3177      3180      3183
      3175      3174      3177      3178      3175      3174      3177      3179
      3175      3174      3177      3180      3176      3174      3177      3178
      3176      3174      3177      3179      3176      3174      3177      3180
      3177      3180      3183      3184      3177      3180      3183      3185
      3177      3180      3183      3186      3178      3177      3180      3181
      3178      3177      3180      3182      3178      3177      3180      3183
      3179      3177      3180      3181      3179      3177      3180      3182
      3179      3177      3180      3183      3180      3183      3186      3187
      3180      3183      3186      3188      3180      3183      3186      3189
      3181      3180      3183      3184      3181      3180      3183      3185
      3181      3180      3183      3186      3182      3180      3183      3184
      3182      3180      3183      3185      3182      3180      3183      3186
      3183      3186      3189      3190      3183      3186      3189      3191
      3183      3186      3189      3192      3184      3183      3186      3187
      3184      3183      3186      3188      3184      3183      3186      3189
      3185      3183      3186      3187      3185      3183      3186      3188
      3185      3183      3186      3189      3186      3189      3192      3193
      3186      3189      3192      3194      3186      3189      3192      3195
      3187      3186      3189      3190      3187      3186      3189      3191
      3187      3186      3189      3192      3188      3186      3189      3190
      3188      3186      3189      3191      3188      3186      3189      3192
      3189      3192      3195      3196      3189      3192      3195      3197
      3189      3192      3195      3198      3190      3189      3192      3193
      3190      3189      3192      3194      3190      3189      3192      3195
      3191      3189      3192      3193      3191      3189      3192      3194
      3191      3189      3192      3195      3192      3195      3198      3199
      3192      3195      3198      3200      3192      3195      3198      3201
      3193      3192      3195      3196      3193      3192      3195      3197
      3193      3192      3195      3198      3194      3192      3195      3196
      3194      3192      3195      3197      3194      3192      3195      3198
      3195      3198      3201      3202      3195      3198      3201      3203
      3195      3198      3201      3204      3196      3195      3198      3199
      3196      3195      3198      3200      3196      3195      3198      3201
      3197      3195      3198      3199      3197      3195      3198      3200
      3197      3195      3198      3201      3198      3201      3204      3205
      3198      3201      3204      3206      3198      3201      3204      3207
      3199      3198      3201      3202      3199      3198      3201      3203
      3199      3198      3201      3204      3200      3198      3201      3202
      3200      3198      3201      3203      3200      3198      3201      3204
      3201      3204      3207      3208      3201      3204      3207      3209
      3201      3204      3207      3210      3202      3201      3204      3205
      3202      3201      3204      3206      3202      3201      3204      3207
      3203      3201      3204      3205      3203      3201      3204      3206
      3203      3201      3204      3207      3204      3207      3210      3211
      3204      3207      3210      3212      3204      3207      3210      3213
      3205      3204      3207      3208      3205      3204      3207      3209
      3205      3204      3207      3210      3206      3204      3207      3208
      3206      3204      3207      3209      3206      3204      3207      3210
      3207      3210      3213      3214      3207      3210      3213      3215
      3207      3210      3213      3216      3208      3207      3210      3211
      3208      3207      3210      3212      3208      3207      3210      3213
      3209      3207      3210      3211      3209      3207      3210      3212
      3209      3207      3210      3213      3210      3213      3216      3217
      3210      3213      3216      3218      3210      3213      3216      3219
      3211      3210      3213      3214      3211      3210      3213      3215
      3211      3210      3213      3216      3212      3210      3213      3214
      3212      3210      3213      3215      3212      3210      3213      3216
      3213      3216      3219      3220      3213      3216      3219      3221
      3213      3216      3219      3222      3214      3213      3216      3217
      3214      3213      3216      3218      3214      3213      3216      3219
      3215      3213      3216      3217      3215      3213      3216      3218
      3215      3213      3216      3219      3216      3219      3222      3223
      3216      3219      3222      3224      3216      3219      3222      3225
      3217      3216      3219      3220      3217      3216      3219      3221
      3217      3216      3219      3222      3218      3216      3219      3220
      3218      3216      3219      3221      3218      3216      3219      3222
      3219      3222      3225      3226      3219      3222      3225      3227
      3219      3222      3225      3228      3220      3219      3222      3223
      3220      3219      3222      3224      3220      3219      3222      3225
      3221      3219      3222      3223      3221      3219      3222      3224
      3221      3219      3222      3225      3222      3225      3228      3229
      3222      3225      3228      3230      3222      3225      3228      3231
      3223      3222      3225      3226      3223      3222      3225      3227
      3223      3222      3225      3228      3224      3222      3225      3226
      3224      3222      3225      3227      3224      3222      3225      3228
      3225      3228      3231      3232      3225      3228      3231      3233
      3225      3228      3231      3234      3226      3225      3228      3229
      3226      3225      3228      3230      3226      3225      3228      3231
      3227      3225      3228      3229      3227      3225      3228      3230
      3227      3225      3228      3231      3228      3231      3234      3235
      3228      3231      3234      3236      3228      3231      3234      3237
      3229      3228      3231      3232      3229      3228      3231      3233
      3229      3228      3231      3234      3230      3228      3231      3232
      3230      3228      3231      3233      3230      3228      3231      3234
      3231      3234      3237      3238      3231      3234      3237      3239
      3231      3234      3237      3240      3232      3231      3234      3235
      3232      3231      3234      3236      3232      3231      3234      3237
      3233      3231      3234      3235      3233      3231      3234      3236
      3233      3231      3234      3237      3234      3237      3240      3241
      3234      3237      3240      3242      3234      3237      3240      3243
      3235      3234      3237      3238      3235      3234      3237      3239
      3235      3234      3237      3240      3236      3234      3237      3238
      3236      3234      3237      3239      3236      3234      3237      3240
      3237      3240      3243      3244      3237      3240      3243      3245
      3237      3240      3243      3246      3238      3237      3240      3241
      3238      3237      3240      3242      3238      3237      3240      3243
      3239      3237      3240      3241      3239      3237      3240      3242
      3239      3237      3240      3243      3240      3243      3246      3247
      3240      3243      3246      3248      3240      3243      3246      3249
      3241      3240      3243      3244      3241      3240      3243      3245
      3241      3240      3243      3246      3242      3240      3243      3244
      3242      3240      3243      3245      3242      3240      3243      3246
      3243      3246      3249      3250      3243      3246      3249      3251
      3243      3246      3249      3252      3244      3243      3246      3247
      3244      3243      3246      3248      3244      3243      3246      3249
      3245      3243      3246      3247      3245      3243      3246      3248
      3245      3243      3246      3249      3246      3249      3252      3253
      3246      3249      3252      3254      3246      3249      3252      3255
      3247      3246      3249      3250      3247      3246      3249      3251
      3247      3246      3249      3252      3248      3246      3249      3250
      3248      3246      3249      3251      3248      3246      3249      3252
      3249      3252      3255      3256      3249      3252      3255      3257
      3249      3252      3255      3258      3250      3249      3252      3253
      3250      3249      3252      3254      3250      3249      3252      3255
      3251      3249      3252      3253      3251      3249      3252      3254
      3251      3249      3252      3255      3253      3252      3255      3256
      3253      3252      3255      3257      3253      3252      3255      3258
      3254      3252      3255      3256      3254      3252      3255      3257
      3254      3252      3255      3258      3259      3263      3266      3267
      3259      3263      3266      3268      3259      3263      3266      3269
      3260      3259      3263      3264      3260      3259      3263      3265
      3260      3259      3263      3266      3261      3259      3263      3264
      3261      3259      3263      3265      3261      3259      3263      3266
      3262      3259      3263      3264      3262      3259      3263      3265
      3262      3259      3263      3266      3263      3266      3269      3270
      3263      3266      3269      3271      3263      3266      3269      3272
      3264      3263      3266      3267      3264      3263      3266      3268
      3264      3263      3266      3269      3265      3263      3266      3267
      3265      3263      3266      3268      3265      3263      3266      3269
      3266      3269      3272      3273      3266      3269      3272      3274
      3266      3269      3272      3275      3267      3266      3269      3270
      3267      3266      3269      3271      3267      3266      3269      3272
      3268      3266      3269      3270      3268      3266      3269      3271
      3268      3266      3269      3272      3269      3272      3275      3276
      3269      3272      3275      3277      3269      3272      3275      3278
      3270      3269      3272      3273      3270      3269      3272      3274
      3270      3269      3272      3275      3271      3269      3272      3273
      3271      3269      3272      3274      3271      3269      3272      3275
      3272      3275      3278      3279      3272      3275      3278      3280
      3272      3275      3278      3281      3273      3272      3275      3276
      3273      3272      3275      3277      3273      3272      3275      3278
      3274      3272      3275      3276      3274      3272      3275      3277
      3274      3272      3275      3278      3275      3278      3281      3282
      3275      3278      3281      3283      3275      3278      3281      3284
      3276      3275      3278      3279      3276      3275      3278      3280
      3276      3275      3278      3281      3277      3275      3278      3279
      3277      3275      3278      3280      3277      3275      3278      3281
      3278      3281      3284      3285      3278      3281      3284      3286
      3278      3281      3284      3287      3279      3278      3281      3282
      3279      3278      3281      3283      3279      3278      3281      3284
      3280      3278      3281      3282      3280      3278      3281      3283
      3280      3278      3281      3284      3281      3284      3287      3288
      3281      3284      3287      3289      3281      3284      3287      3290
      3282      3281      3284      3285      3282      3281      3284      3286
      3282      3281      3284      3287      3283      3281      3284      3285
      3283      3281      3284      3286      3283      3281      3284      3287
      3284      3287      3290      3291      3284      3287      3290      3292
      3284      3287      3290      3293      3285      3284      3287      3288
      3285      3284      3287      3289      3285      3284      3287      3290
      3286      3284      3287      3288      3286      3284      3287      3289
      3286      3284      3287      3290      3287      3290      3293      3294
      3287      3290      3293      3295      3287      3290      3293      3296
      3288      3287      3290      3291      3288      3287      3290      3292
      3288      3287      3290      3293      3289      3287      3290      3291
      3289      3287      3290      3292      3289      3287      3290      3293
      3290      3293      3296      3297      3290      3293      3296      3298
      3290      3293      3296      3299      3291      3290      3293      3294
      3291      3290      3293      3295      3291      3290      3293      3296
      3292      3290      3293      3294      3292      3290      3293      3295
      3292      3290      3293      3296      3293      3296      3299      3300
      3293      3296      3299      3301      3293      3296      3299      3302
      3294      3293      3296      3297      3294      3293      3296      3298
      3294      3293      3296      3299      3295      3293      3296      3297
      3295      3293      3296      3298      3295      3293      3296      3299
      3296      3299      3302      3303      3296      3299      3302      3304
      3296      3299      3302      3305      3297      3296      3299      3300
      3297      3296      3299      3301      3297      3296      3299      3302
      3298      3296      3299      3300      3298      3296      3299      3301
      3298      3296      3299      3302      3299      3302      3305      3306
      3299      3302      3305      3307      3299      3302      3305      3308
      3300      3299      3302      3303      3300      3299      3302      3304
      3300      3299      3302      3305      3301      3299      3302      3303
      3301      3299      3302      3304      3301      3299      3302      3305
      3302      3305      3308      3309      3302      3305      3308      3310
      3302      3305      3308      3311      3303      3302      3305      3306
      3303      3302      3305      3307      3303      3302      3305      3308
      3304      3302      3305      3306      3304      3302      3305      3307
      3304      3302      3305      3308      3305      3308      3311      3312
      3305      3308      3311      3313      3305      3308      3311      3314
      3306      3305      3308      3309      3306      3305      3308      3310
      3306      3305      3308      3311      3307      3305      3308      3309
      3307      3305      3308      3310      3307      3305      3308      3311
      3308      3311      3314      3315      3308      3311      3314      3316
      3308      3311      3314      3317      3309      3308      3311      3312
      3309      3308      3311      3313      3309      3308      3311      3314
      3310      3308      3311      3312      3310      3308      3311      3313
      3310      3308      3311      3314      3311      3314      3317      3318
      3311      3314      3317      3319      3311      3314      3317      3320
      3312      3311      3314      3315      3312      3311      3314      3316
      3312      3311      3314      3317      3313      3311      3314      3315
      3313      3311      3314      3316      3313      3311      3314      3317
      3314      3317      3320      3321      3314      3317      3320      3322
      3314      3317      3320      3323      3315      3314      3317      3318
      3315      3314      3317      3319      3315      3314      3317      3320
      3316      3314      3317      3318      3316      3314      3317      3319
      3316      3314      3317      3320      3317      3320      3323      3324
      3317      3320      3323      3325      3317      3320      3323      3326
      3318      3317      3320      3321      3318      3317      3320      3322
      3318      3317      3320      3323      3319      3317      3320      3321
      3319      3317      3320      3322      3319      3317      3320      3323
      3320      3323      3326      3327      3320      3323      3326      3328
      3320      3323      3326      3329      3321      3320      3323      3324
      3321      3320      3323      3325      3321      3320      3323      3326
      3322      3320      3323      3324      3322      3320      3323      3325
      3322      3320      3323      3326      3323      3326      3329      3330
      3323      3326      3329      3331      3323      3326      3329      3332
      3324      3323      3326      3327      3324      3323      3326      3328
      3324      3323      3326      3329      3325      3323      3326      3327
      3325      3323      3326      3328      3325      3323      3326      3329
      3326      3329      3332      3333      3326      3329      3332      3334
      3326      3329      3332      3335      3327      3326      3329      3330
      3327      3326      3329      3331      3327      3326      3329      3332
      3328      3326      3329      3330      3328      3326      3329      3331
      3328      3326      3329      3332      3329      3332      3335      3336
      3329      3332      3335      3337      3329      3332      3335      3338
      3330      3329      3332      3333      3330      3329      3332      3334
      3330      3329      3332      3335      3331      3329      3332      3333
      3331      3329      3332      3334      3331      3329      3332      3335
      3332      3335      3338      3339      3332      3335      3338      3340
      3332      3335      3338      3341      3333      3332      3335      3336
      3333      3332      3335      3337      3333      3332      3335      3338
      3334      3332      3335      3336      3334      3332      3335      3337
      3334      3332      3335      3338      3335      3338      3341      3342
      3335      3338      3341      3343      3335      3338      3341      3344
      3336      3335      3338      3339      3336      3335      3338      3340
      3336      3335      3338      3341      3337      3335      3338      3339
      3337      3335      3338      3340      3337      3335      3338      3341
      3338      3341      3344      3345      3338      3341      3344      3346
      3338      3341      3344      3347      3339      3338      3341      3342
      3339      3338      3341      3343      3339      3338      3341      3344
      3340      3338      3341      3342      3340      3338      3341      3343
      3340      3338      3341      3344      3341      3344      3347      3348
      3341      3344      3347      3349      3341      3344      3347      3350
      3342      3341      3344      3345      3342      3341      3344      3346
      3342      3341      3344      3347      3343      3341      3344      3345
      3343      3341      3344      3346      3343      3341      3344      3347
      3344      3347      3350      3351      3344      3347      3350      3352
      3344      3347      3350      3353      3345      3344      3347      3348
      3345      3344      3347      3349      3345      3344      3347      3350
      3346      3344      3347      3348      3346      3344      3347      3349
      3346      3344      3347      3350      3347      3350      3353      3354
      3347      3350      3353      3355      3347      3350      3353      3356
      3348      3347      3350      3351      3348      3347      3350      3352
      3348      3347      3350      3353      3349      3347      3350      3351
      3349      3347      3350      3352      3349      3347      3350      3353
      3350      3353      3356      3357      3350      3353      3356      3358
      3350      3353      3356      3359      3351      3350      3353      3354
      3351      3350      3353      3355      3351      3350      3353      3356
      3352      3350      3353      3354      3352      3350      3353      3355
      3352      3350      3353      3356      3353      3356      3359      3360
      3353      3356      3359      3361      3353      3356      3359      3362
      3354      3353      3356      3357      3354      3353      3356      3358
      3354      3353      3356      3359      3355      3353      3356      3357
      3355      3353      3356      3358      3355      3353      3356      3359
      3356      3359      3362      3363      3356      3359      3362      3364
      3356      3359      3362      3365      3357      3356      3359      3360
      3357      3356      3359      3361      3357      3356      3359      3362
      3358      3356      3359      3360      3358      3356      3359      3361
      3358      3356      3359      3362      3359      3362      3365      3366
      3359      3362      3365      3367      3359      3362      3365      3368
      3360      3359      3362      3363      3360      3359      3362      3364
      3360      3359      3362      3365      3361      3359      3362      3363
      3361      3359      3362      3364      3361      3359      3362      3365
      3362      3365      3368      3369      3362      3365      3368      3370
      3362      3365      3368      3371      3363      3362      3365      3366
      3363      3362      3365      3367      3363      3362      3365      3368
      3364      3362      3365      3366      3364      3362      3365      3367
      3364      3362      3365      3368      3365      3368      3371      3372
      3365      3368      3371      3373      3365      3368      3371      3374
      3366      3365      3368      3369      3366      3365      3368      3370
      3366      3365      3368      3371      3367      3365      3368      3369
      3367      3365      3368      3370      3367      3365      3368      3371
      3368      3371      3374      3375      3368      3371      3374      3376
      3368      3371      3374      3377      3369      3368      3371      3372
      3369      3368      3371      3373      3369      3368      3371      3374
      3370      3368      3371      3372      3370      3368      3371      3373
      3370      3368      3371      3374      3371      3374      3377      3378
      3371      3374      3377      3379      3371      3374      3377      3380
      3372      3371      3374      3375      3372      3371      3374      3376
      3372      3371      3374      3377      3373      3371      3374      3375
      3373      3371      3374      3376      3373      3371      3374      3377
      3374      3377      3380      3381      3374      3377      3380      3382
      3374      3377      3380      3383      3375      3374      3377      3378
      3375      3374      3377      3379      3375      3374      3377      3380
      3376      3374      3377      3378      3376      3374      3377      3379
      3376      3374      3377      3380      3377      3380      3383      3384
      3377      3380      3383      3385      3377      3380      3383      3386
      3378      3377      3380      3381      3378      3377      3380      3382
      3378      3377      3380      3383      3379      3377      3380      3381
      3379      3377      3380      3382      3379      3377      3380      3383
      3380      3383      3386      3387      3380      3383      3386      3388
      3380      3383      3386      3389      3381      3380      3383      3384
      3381      3380      3383      3385      3381      3380      3383      3386
      3382      3380      3383      3384      3382      3380      3383      3385
      3382      3380      3383      3386      3383      3386      3389      3390
      3383      3386      3389      3391      3383      3386      3389      3392
      3384      3383      3386      3387      3384      3383      3386      3388
      3384      3383      3386      3389      3385      3383      3386      3387
      3385      3383      3386      3388      3385      3383      3386      3389
      3386      3389      3392      3393      3386      3389      3392      3394
      3386      3389      3392      3395      3387      3386      3389      3390
      3387      3386      3389      3391      3387      3386      3389      3392
      3388      3386      3389      3390      3388      3386      3389      3391
      3388      3386      3389      3392      3389      3392      3395      3396
      3389      3392      3395      3397      3389      3392      3395      3398
      3390      3389      3392      3393      3390      3389      3392      3394
      3390      3389      3392      3395      3391      3389      3392      3393
      3391      3389      3392      3394      3391      3389      3392      3395
      3392      3395      3398      3399      3392      3395      3398      3400
      3392      3395      3398      3401      3393      3392      3395      3396
      3393      3392      3395      3397      3393      3392      3395      3398
      3394      3392      3395      3396      3394      3392      3395      3397
      3394      3392      3395      3398      3395      3398      3401      3402
      3395      3398      3401      3403      3395      3398      3401      3404
      3396      3395      3398      3399      3396      3395      3398      3400
      3396      3395      3398      3401      3397      3395      3398      3399
      3397      3395      3398      3400      3397      3395      3398      3401
      3398      3401      3404      3405      3398      3401      3404      3406
      3398      3401      3404      3407      3399      3398      3401      3402
      3399      3398      3401      3403      3399      3398      3401      3404
      3400      3398      3401      3402      3400      3398      3401      3403
      3400      3398      3401      3404      3401      3404      3407      3408
      3401      3404      3407      3409      3401      3404      3407      3410
      3402      3401      3404      3405      3402      3401      3404      3406
      3402      3401      3404      3407      3403      3401      3404      3405
      3403      3401      3404      3406      3403      3401      3404      3407
      3404      3407      3410      3411      3404      3407      3410      3412
      3404      3407      3410      3413      3405      3404      3407      3408
      3405      3404      3407      3409      3405      3404      3407      3410
      3406      3404      3407      3408      3406      3404      3407      3409
      3406      3404      3407      3410      3407      3410      3413      3414
      3407      3410      3413      3415      3407      3410      3413      3416
      3408      3407      3410      3411      3408      3407      3410      3412
      3408      3407      3410      3413      3409      3407      3410      3411
      3409      3407      3410      3412      3409      3407      3410      3413
      3410      3413      3416      3417      3410      3413      3416      3418
      3410      3413      3416      3419      3411      3410      3413      3414
      3411      3410      3413      3415      3411      3410      3413      3416
      3412      3410      3413      3414      3412      3410      3413      3415
      3412      3410      3413      3416      3413      3416      3419      3420
      3413      3416      3419      3421      3413      3416      3419      3422
      3414      3413      3416      3417      3414      3413      3416      3418
      3414      3413      3416      3419      3415      3413      3416      3417
      3415      3413      3416      3418      3415      3413      3416      3419
      3416      3419      3422      3423      3416      3419      3422      3424
      3416      3419      3422      3425      3417      3416      3419      3420
      3417      3416      3419      3421      3417      3416      3419      3422
      3418      3416      3419      3420      3418      3416      3419      3421
      3418      3416      3419      3422      3419      3422      3425      3426
      3419      3422      3425      3427      3419      3422      3425      3428
      3420      3419      3422      3423      3420      3419      3422      3424
      3420      3419      3422      3425      3421      3419      3422      3423
      3421      3419      3422      3424      3421      3419      3422      3425
      3422      3425      3428      3429      3422      3425      3428      3430
      3422      3425      3428      3431      3423      3422      3425      3426
      3423      3422      3425      3427      3423      3422      3425      3428
      3424      3422      3425      3426      3424      3422      3425      3427
      3424      3422      3425      3428      3425      3428      3431      3432
      3425      3428      3431      3433      3425      3428      3431      3434
      3426      3425      3428      3429      3426      3425      3428      3430
      3426      3425      3428      3431      3427      3425      3428      3429
      3427      3425      3428      3430      3427      3425      3428      3431
      3428      3431      3434      3435      3428      3431      3434      3436
      3428      3431      3434      3437      3429      3428      3431      3432
      3429      3428      3431      3433      3429      3428      3431      3434
      3430      3428      3431      3432      3430      3428      3431      3433
      3430      3428      3431      3434      3431      3434      3437      3438
      3431      3434      3437      3439      3431      3434      3437      3440
      3432      3431      3434      3435      3432      3431      3434      3436
      3432      3431      3434      3437      3433      3431      3434      3435
      3433      3431      3434      3436      3433      3431      3434      3437
      3434      3437      3440      3441      3434      3437      3440      3442
      3434      3437      3440      3443      3435      3434      3437      3438
      3435      3434      3437      3439      3435      3434      3437      3440
      3436      3434      3437      3438      3436      3434      3437      3439
      3436      3434      3437      3440      3437      3440      3443      3444
      3437      3440      3443      3445      3437      3440      3443      3446
      3438      3437      3440      3441      3438      3437      3440      3442
      3438      3437      3440      3443      3439      3437      3440      3441
      3439      3437      3440      3442      3439      3437      3440      3443
      3440      3443      3446      3447      3440      3443      3446      3448
      3440      3443      3446      3449      3441      3440      3443      3444
      3441      3440      3443      3445      3441      3440      3443      3446
      3442      3440      3443      3444      3442      3440      3443      3445
      3442      3440      3443      3446      3443      3446      3449      3450
      3443      3446      3449      3451      3443      3446      3449      3452
      3444      3443      3446      3447      3444      3443      3446      3448
      3444      3443      3446      3449      3445      3443      3446      3447
      3445      3443      3446      3448      3445      3443      3446      3449
      3446      3449      3452      3453      3446      3449      3452      3454
      3446      3449      3452      3455      3447      3446      3449      3450
      3447      3446      3449      3451      3447      3446      3449      3452
      3448      3446      3449      3450      3448      3446      3449      3451
      3448      3446      3449      3452      3449      3452      3455      3456
      3449      3452      3455      3457      3449      3452      3455      3458
      3450      3449      3452      3453      3450      3449      3452      3454
      3450      3449      3452      3455      3451      3449      3452      3453
      3451      3449      3452      3454      3451      3449      3452      3455
      3452      3455      3458      3459      3452      3455      3458      3460
      3452      3455      3458      3461      3453      3452      3455      3456
      3453      3452      3455      3457      3453      3452      3455      3458
      3454      3452      3455      3456      3454      3452      3455      3457
      3454      3452      3455      3458      3455      3458      3461      3462
      3455      3458      3461      3463      3455      3458      3461      3464
      3456      3455      3458      3459      3456      3455      3458      3460
      3456      3455      3458      3461      3457      3455      3458      3459
      3457      3455      3458      3460      3457      3455      3458      3461
      3458      3461      3464      3465      3458      3461      3464      3466
      3458      3461      3464      3467      3459      3458      3461      3462
      3459      3458      3461      3463      3459      3458      3461      3464
      3460      3458      3461      3462      3460      3458      3461      3463
      3460      3458      3461      3464      3461      3464      3467      3468
      3461      3464      3467      3469      3461      3464      3467      3470
      3462      3461      3464      3465      3462      3461      3464      3466
      3462      3461      3464      3467      3463      3461      3464      3465
      3463      3461      3464      3466      3463      3461      3464      3467
      3464      3467      3470      3471      3464      3467      3470      3472
      3464      3467      3470      3473      3465      3464      3467      3468
      3465      3464      3467      3469      3465      3464      3467      3470
      3466      3464      3467      3468      3466      3464      3467      3469
      3466      3464      3467      3470      3467      3470      3473      3474
      3467      3470      3473      3475      3467      3470      3473      3476
      3468      3467      3470      3471      3468      3467      3470      3472
      3468      3467      3470      3473      3469      3467      3470      3471
      3469      3467      3470      3472      3469      3467      3470      3473
      3470      3473      3476      3477      3470      3473      3476      3478
      3470      3473      3476      3479      3471      3470      3473      3474
      3471      3470      3473      3475      3471      3470      3473      3476
      3472      3470      3473      3474      3472      3470      3473      3475
      3472      3470      3473      3476      3473      3476      3479      3480
      3473      3476      3479      3481      3473      3476      3479      3482
      3474      3473      3476      3477      3474      3473      3476      3478
      3474      3473      3476      3479      3475      3473      3476      3477
      3475      3473      3476      3478      3475      3473      3476      3479
      3476      3479      3482      3483      3476      3479      3482      3484
      3476      3479      3482      3485      3477      3476      3479      3480
      3477      3476      3479      3481      3477      3476      3479      3482
      3478      3476      3479      3480      3478      3476      3479      3481
      3478      3476      3479      3482      3479      3482      3485      3486
      3479      3482      3485      3487      3479      3482      3485      3488
      3480      3479      3482      3483      3480      3479      3482      3484
      3480      3479      3482      3485      3481      3479      3482      3483
      3481      3479      3482      3484      3481      3479      3482      3485
      3482      3485      3488      3489      3482      3485      3488      3490
      3482      3485      3488      3491      3483      3482      3485      3486
      3483      3482      3485      3487      3483      3482      3485      3488
      3484      3482      3485      3486      3484      3482      3485      3487
      3484      3482      3485      3488      3485      3488      3491      3492
      3485      3488      3491      3493      3485      3488      3491      3494
      3486      3485      3488      3489      3486      3485      3488      3490
      3486      3485      3488      3491      3487      3485      3488      3489
      3487      3485      3488      3490      3487      3485      3488      3491
      3488      3491      3494      3495      3488      3491      3494      3496
      3488      3491      3494      3497      3489      3488      3491      3492
      3489      3488      3491      3493      3489      3488      3491      3494
      3490      3488      3491      3492      3490      3488      3491      3493
      3490      3488      3491      3494      3491      3494      3497      3498
      3491      3494      3497      3499      3491      3494      3497      3500
      3492      3491      3494      3495      3492      3491      3494      3496
      3492      3491      3494      3497      3493      3491      3494      3495
      3493      3491      3494      3496      3493      3491      3494      3497
      3494      3497      3500      3501      3494      3497      3500      3502
      3494      3497      3500      3503      3495      3494      3497      3498
      3495      3494      3497      3499      3495      3494      3497      3500
      3496      3494      3497      3498      3496      3494      3497      3499
      3496      3494      3497      3500      3497      3500      3503      3504
      3497      3500      3503      3505      3497      3500      3503      3506
      3498      3497      3500      3501      3498      3497      3500      3502
      3498      3497      3500      3503      3499      3497      3500      3501
      3499      3497      3500      3502      3499      3497      3500      3503
      3500      3503      3506      3507      3500      3503      3506      3508
      3500      3503      3506      3509      3501      3500      3503      3504
      3501      3500      3503      3505      3501      3500      3503      3506
      3502      3500      3503      3504      3502      3500      3503      3505
      3502      3500      3503      3506      3503      3506      3509      3510
      3503      3506      3509      3511      3503      3506      3509      3512
      3504      3503      3506      3507      3504      3503      3506      3508
      3504      3503      3506      3509      3505      3503      3506      3507
      3505      3503      3506      3508      3505      3503      3506      3509
      3506      3509      3512      3513      3506      3509      3512      3514
      3506      3509      3512      3515      3507      3506      3509      3510
      3507      3506      3509      3511      3507      3506      3509      3512
      3508      3506      3509      3510      3508      3506      3509      3511
      3508      3506      3509      3512      3509      3512      3515      3516
      3509      3512      3515      3517      3509      3512      3515      3518
      3510      3509      3512      3513      3510      3509      3512      3514
      3510      3509      3512      3515      3511      3509      3512      3513
      3511      3509      3512      3514      3511      3509      3512      3515
      3512      3515      3518      3519      3512      3515      3518      3520
      3512      3515      3518      3521      3513      3512      3515      3516
      3513      3512      3515      3517      3513      3512      3515      3518
      3514      3512      3515      3516      3514      3512      3515      3517
      3514      3512      3515      3518      3515      3518      3521      3522
      3515      3518      3521      3523      3515      3518      3521      3524
      3516      3515      3518      3519      3516      3515      3518      3520
      3516      3515      3518      3521      3517      3515      3518      3519
      3517      3515      3518      3520      3517      3515      3518      3521
      3518      3521      3524      3525      3518      3521      3524      3526
      3518      3521      3524      3527      3519      3518      3521      3522
      3519      3518      3521      3523      3519      3518      3521      3524
      3520      3518      3521      3522      3520      3518      3521      3523
      3520      3518      3521      3524      3521      3524      3527      3528
      3521      3524      3527      3529      3521      3524      3527      3530
      3522      3521      3524      3525      3522      3521      3524      3526
      3522      3521      3524      3527      3523      3521      3524      3525
      3523      3521      3524      3526      3523      3521      3524      3527
      3524      3527      3530      3531      3524      3527      3530      3532
      3524      3527      3530      3533      3525      3524      3527      3528
      3525      3524      3527      3529      3525      3524      3527      3530
      3526      3524      3527      3528      3526      3524      3527      3529
      3526      3524      3527      3530      3527      3530      3533      3534
      3527      3530      3533      3535      3527      3530      3533      3536
      3528      3527      3530      3531      3528      3527      3530      3532
      3528      3527      3530      3533      3529      3527      3530      3531
      3529      3527      3530      3532      3529      3527      3530      3533
      3530      3533      3536      3537      3530      3533      3536      3538
      3530      3533      3536      3539      3531      3530      3533      3534
      3531      3530      3533      3535      3531      3530      3533      3536
      3532      3530      3533      3534      3532      3530      3533      3535
      3532      3530      3533      3536      3533      3536      3539      3540
      3533      3536      3539      3541      3533      3536      3539      3542
      3534      3533      3536      3537      3534      3533      3536      3538
      3534      3533      3536      3539      3535      3533      3536      3537
      3535      3533      3536      3538      3535      3533      3536      3539
      3536      3539      3542      3543      3536      3539      3542      3544
      3536      3539      3542      3545      3537      3536      3539      3540
      3537      3536      3539      3541      3537      3536      3539      3542
      3538      3536      3539      3540      3538      3536      3539      3541
      3538      3536      3539      3542      3539      3542      3545      3546
      3539      3542      3545      3547      3539      3542      3545      3548
      3540      3539      3542      3543      3540      3539      3542      3544
      3540      3539      3542      3545      3541      3539      3542      3543
      3541      3539      3542      3544      3541      3539      3542      3545
      3542      3545      3548      3549      3542      3545      3548      3550
      3542      3545      3548      3551      3543      3542      3545      3546
      3543      3542      3545      3547      3543      3542      3545      3548
      3544      3542      3545      3546      3544      3542      3545      3547
      3544      3542      3545      3548      3545      3548      3551      3552
      3545      3548      3551      3553      3545      3548      3551      3554
      3546      3545      3548      3549      3546      3545      3548      3550
      3546      3545      3548      3551      3547      3545      3548      3549
      3547      3545      3548      3550      3547      3545      3548      3551
      3548      3551      3554      3555      3548      3551      3554      3556
      3548      3551      3554      3557      3549      3548      3551      3552
      3549      3548      3551      3553      3549      3548      3551      3554
      3550      3548      3551      3552      3550      3548      3551      3553
      3550      3548      3551      3554      3551      3554      3557      3558
      3551      3554      3557      3559      3551      3554      3557      3560
      3552      3551      3554      3555      3552      3551      3554      3556
      3552      3551      3554      3557      3553      3551      3554      3555
      3553      3551      3554      3556      3553      3551      3554      3557
      3554      3557      3560      3561      3554      3557      3560      3562
      3554      3557      3560      3563      3555      3554      3557      3558
      3555      3554      3557      3559      3555      3554      3557      3560
      3556      3554      3557      3558      3556      3554      3557      3559
      3556      3554      3557      3560      3557      3560      3563      3564
      3557      3560      3563      3565      3557      3560      3563      3566
      3558      3557      3560      3561      3558      3557      3560      3562
      3558      3557      3560      3563      3559      3557      3560      3561
      3559      3557      3560      3562      3559      3557      3560      3563
      3560      3563      3566      3567      3560      3563      3566      3568
      3560      3563      3566      3569      3561      3560      3563      3564
      3561      3560      3563      3565      3561      3560      3563      3566
      3562      3560      3563      3564      3562      3560      3563      3565
      3562      3560      3563      3566      3563      3566      3569      3570
      3563      3566      3569      3571      3563      3566      3569      3572
      3564      3563      3566      3567      3564      3563      3566      3568
      3564      3563      3566      3569      3565      3563      3566      3567
      3565      3563      3566      3568      3565      3563      3566      3569
      3566      3569      3572      3573      3566      3569      3572      3574
      3566      3569      3572      3575      3567      3566      3569      3570
      3567      3566      3569      3571      3567      3566      3569      3572
      3568      3566      3569      3570      3568      3566      3569      3571
      3568      3566      3569      3572      3569      3572      3575      3576
      3569      3572      3575      3577      3569      3572      3575      3578
      3570      3569      3572      3573      3570      3569      3572      3574
      3570      3569      3572      3575      3571      3569      3572      3573
      3571      3569      3572      3574      3571      3569      3572      3575
      3572      3575      3578      3579      3572      3575      3578      3580
      3572      3575      3578      3581      3573      3572      3575      3576
      3573      3572      3575      3577      3573      3572      3575      3578
      3574      3572      3575      3576      3574      3572      3575      3577
      3574      3572      3575      3578      3575      3578      3581      3582
      3575      3578      3581      3583      3575      3578      3581      3584
      3576      3575      3578      3579      3576      3575      3578      3580
      3576      3575      3578      3581      3577      3575      3578      3579
      3577      3575      3578      3580      3577      3575      3578      3581
      3578      3581      3584      3585      3578      3581      3584      3586
      3578      3581      3584      3587      3579      3578      3581      3582
      3579      3578      3581      3583      3579      3578      3581      3584
      3580      3578      3581      3582      3580      3578      3581      3583
      3580      3578      3581      3584      3581      3584      3587      3588
      3581      3584      3587      3589      3581      3584      3587      3590
      3582      3581      3584      3585      3582      3581      3584      3586
      3582      3581      3584      3587      3583      3581      3584      3585
      3583      3581      3584      3586      3583      3581      3584      3587
      3584      3587      3590      3591      3584      3587      3590      3592
      3584      3587      3590      3593      3585      3584      3587      3588
      3585      3584      3587      3589      3585      3584      3587      3590
      3586      3584      3587      3588      3586      3584      3587      3589
      3586      3584      3587      3590      3587      3590      3593      3594
      3587      3590      3593      3595      3587      3590      3593      3596
      3588      3587      3590      3591      3588      3587      3590      3592
      3588      3587      3590      3593      3589      3587      3590      3591
      3589      3587      3590      3592      3589      3587      3590      3593
      3590      3593      3596      3597      3590      3593      3596      3598
      3590      3593      3596      3599      3591      3590      3593      3594
      3591      3590      3593      3595      3591      3590      3593      3596
      3592      3590      3593      3594      3592      3590      3593      3595
      3592      3590      3593      3596      3593      3596      3599      3600
      3593      3596      3599      3601      3593      3596      3599      3602
      3594      3593      3596      3597      3594      3593      3596      3598
      3594      3593      3596      3599      3595      3593      3596      3597
      3595      3593      3596      3598      3595      3593      3596      3599
      3596      3599      3602      3603      3596      3599      3602      3604
      3596      3599      3602      3605      3597      3596      3599      3600
      3597      3596      3599      3601      3597      3596      3599      3602
      3598      3596      3599      3600      3598      3596      3599      3601
      3598      3596      3599      3602      3599      3602      3605      3606
      3599      3602      3605      3607      3599      3602      3605      3608
      3600      3599      3602      3603      3600      3599      3602      3604
      3600      3599      3602      3605      3601      3599      3602      3603
      3601      3599      3602      3604      3601      3599      3602      3605
      3602      3605      3608      3609      3602      3605      3608      3610
      3602      3605      3608      3611      3603      3602      3605      3606
      3603      3602      3605      3607      3603      3602      3605      3608
      3604      3602      3605      3606      3604      3602      3605      3607
      3604      3602      3605      3608      3605      3608      3611      3612
      3605      3608      3611      3613      3605      3608      3611      3614
      3606      3605      3608      3609      3606      3605      3608      3610
      3606      3605      3608      3611      3607      3605      3608      3609
      3607      3605      3608      3610      3607      3605      3608      3611
      3608      3611      3614      3615      3608      3611      3614      3616
      3608      3611      3614      3617      3609      3608      3611      3612
      3609      3608      3611      3613      3609      3608      3611      3614
      3610      3608      3611      3612      3610      3608      3611      3613
      3610      3608      3611      3614      3611      3614      3617      3618
      3611      3614      3617      3619      3611      3614      3617      3620
      3612      3611      3614      3615      3612      3611      3614      3616
      3612      3611      3614      3617      3613      3611      3614      3615
      3613      3611      3614      3616      3613      3611      3614      3617
      3615      3614      3617      3618      3615      3614      3617      3619
      3615      3614      3617      3620      3616      3614      3617      3618
      3616      3614      3617      3619      3616      3614      3617      3620
      3621      3625      3628      3629      3621      3625      3628      3630
      3621      3625      3628      3631      3622      3621      3625      3626
      3622      3621      3625      3627      3622      3621      3625      3628
      3623      3621      3625      3626      3623      3621      3625      3627
      3623      3621      3625      3628      3624      3621      3625      3626
      3624      3621      3625      3627      3624      3621      3625      3628
      3625      3628      3631      3632      3625      3628      3631      3633
      3625      3628      3631      3634      3626      3625      3628      3629
      3626      3625      3628      3630      3626      3625      3628      3631
      3627      3625      3628      3629      3627      3625      3628      3630
      3627      3625      3628      3631      3628      3631      3634      3635
      3628      3631      3634      3636      3628      3631      3634      3637
      3629      3628      3631      3632      3629      3628      3631      3633
      3629      3628      3631      3634      3630      3628      3631      3632
      3630      3628      3631      3633      3630      3628      3631      3634
      3631      3634      3637      3638      3631      3634      3637      3639
      3631      3634      3637      3640      3632      3631      3634      3635
      3632      3631      3634      3636      3632      3631      3634      3637
      3633      3631      3634      3635      3633      3631      3634      3636
      3633      3631      3634      3637      3634      3637      3640      3641
      3634      3637      3640      3642      3634      3637      3640      3643
      3635      3634      3637      3638      3635      3634      3637      3639
      3635      3634      3637      3640      3636      3634      3637      3638
      3636      3634      3637      3639      3636      3634      3637      3640
      3637      3640      3643      3644      3637      3640      3643      3645
      3637      3640      3643      3646      3638      3637      3640      3641
      3638      3637      3640      3642      3638      3637      3640      3643
      3639      3637      3640      3641      3639      3637      3640      3642
      3639      3637      3640      3643      3640      3643      3646      3647
      3640      3643      3646      3648      3640      3643      3646      3649
      3641      3640      3643      3644      3641      3640      3643      3645
      3641      3640      3643      3646      3642      3640      3643      3644
      3642      3640      3643      3645      3642      3640      3643      3646
      3643      3646      3649      3650      3643      3646      3649      3651
      3643      3646      3649      3652      3644      3643      3646      3647
      3644      3643      3646      3648      3644      3643      3646      3649
      3645      3643      3646      3647      3645      3643      3646      3648
      3645      3643      3646      3649      3646      3649      3652      3653
      3646      3649      3652      3654      3646      3649      3652      3655
      3647      3646      3649      3650      3647      3646      3649      3651
      3647      3646      3649      3652      3648      3646      3649      3650
      3648      3646      3649      3651      3648      3646      3649      3652
      3649      3652      3655      3656      3649      3652      3655      3657
      3649      3652      3655      3658      3650      3649      3652      3653
      3650      3649      3652      3654      3650      3649      3652      3655
      3651      3649      3652      3653      3651      3649      3652      3654
      3651      3649      3652      3655      3652      3655      3658      3659
      3652      3655      3658      3660      3652      3655      3658      3661
      3653      3652      3655      3656      3653      3652      3655      3657
      3653      3652      3655      3658      3654      3652      3655      3656
      3654      3652      3655      3657      3654      3652      3655      3658
      3655      3658      3661      3662      3655      3658      3661      3663
      3655      3658      3661      3664      3656      3655      3658      3659
      3656      3655      3658      3660      3656      3655      3658      3661
      3657      3655      3658      3659      3657      3655      3658      3660
      3657      3655      3658      3661      3658      3661      3664      3665
      3658      3661      3664      3666      3658      3661      3664      3667
      3659      3658      3661      3662      3659      3658      3661      3663
      3659      3658      3661      3664      3660      3658      3661      3662
      3660      3658      3661      3663      3660      3658      3661      3664
      3661      3664      3667      3668      3661      3664      3667      3669
      3661      3664      3667      3670      3662      3661      3664      3665
      3662      3661      3664      3666      3662      3661      3664      3667
      3663      3661      3664      3665      3663      3661      3664      3666
      3663      3661      3664      3667      3664      3667      3670      3671
      3664      3667      3670      3672      3664      3667      3670      3673
      3665      3664      3667      3668      3665      3664      3667      3669
      3665      3664      3667      3670      3666      3664      3667      3668
      3666      3664      3667      3669      3666      3664      3667      3670
      3667      3670      3673      3674      3667      3670      3673      3675
      3667      3670      3673      3676      3668      3667      3670      3671
      3668      3667      3670      3672      3668      3667      3670      3673
      3669      3667      3670      3671      3669      3667      3670      3672
      3669      3667      3670      3673      3670      3673      3676      3677
      3670      3673      3676      3678      3670      3673      3676      3679
      3671      3670      3673      3674      3671      3670      3673      3675
      3671      3670      3673      3676      3672      3670      3673      3674
      3672      3670      3673      3675      3672      3670      3673      3676
      3673      3676      3679      3680      3673      3676      3679      3681
      3673      3676      3679      3682      3674      3673      3676      3677
      3674      3673      3676      3678      3674      3673      3676      3679
      3675      3673      3676      3677      3675      3673      3676      3678
      3675      3673      3676      3679      3676      3679      3682      3683
      3676      3679      3682      3684      3676      3679      3682      3685
      3677      3676      3679      3680      3677      3676      3679      3681
      3677      3676      3679      3682      3678      3676      3679      3680
      3678      3676      3679      3681      3678      3676      3679      3682
      3679      3682      3685      3686      3679      3682      3685      3687
      3679      3682      3685      3688      3680      3679      3682      3683
      3680      3679      3682      3684      3680      3679      3682      3685
      3681      3679      3682      3683      3681      3679      3682      3684
      3681      3679      3682      3685      3682      3685      3688      3689
      3682      3685      3688      3690      3682      3685      3688      3691
      3683      3682      3685      3686      3683      3682      3685      3687
      3683      3682      3685      3688      3684      3682      3685      3686
      3684      3682      3685      3687      3684      3682      3685      3688
      3685      3688      3691      3692      3685      3688      3691      3693
      3685      3688      3691      3694      3686      3685      3688      3689
      3686      3685      3688      3690      3686      3685      3688      3691
      3687      3685      3688      3689      3687      3685      3688      3690
      3687      3685      3688      3691      3688      3691      3694      3695
      3688      3691      3694      3696      3688      3691      3694      3697
      3689      3688      3691      3692      3689      3688      3691      3693
      3689      3688      3691      3694      3690      3688      3691      3692
      3690      3688      3691      3693      3690      3688      3691      3694
      3691      3694      3697      3698      3691      3694      3697      3699
      3691      3694      3697      3700      3692      3691      3694      3695
      3692      3691      3694      3696      3692      3691      3694      3697
      3693      3691      3694      3695      3693      3691      3694      3696
      3693      3691      3694      3697      3694      3697      3700      3701
      3694      3697      3700      3702      3694      3697      3700      3703
      3695      3694      3697      3698      3695      3694      3697      3699
      3695      3694      3697      3700      3696      3694      3697      3698
      3696      3694      3697      3699      3696      3694      3697      3700
      3697      3700      3703      3704      3697      3700      3703      3705
      3697      3700      3703      3706      3698      3697      3700      3701
      3698      3697      3700      3702      3698      3697      3700      3703
      3699      3697      3700      3701      3699      3697      3700      3702
      3699      3697      3700      3703      3700      3703      3706      3707
      3700      3703      3706      3708      3700      3703      3706      3709
      3701      3700      3703      3704      3701      3700      3703      3705
      3701      3700      3703      3706      3702      3700      3703      3704
      3702      3700      3703      3705      3702      3700      3703      3706
      3703      3706      3709      3710      3703      3706      3709      3711
      3703      3706      3709      3712      3704      3703      3706      3707
      3704      3703      3706      3708      3704      3703      3706      3709
      3705      3703      3706      3707      3705      3703      3706      3708
      3705      3703      3706      3709      3706      3709      3712      3713
      3706      3709      3712      3714      3706      3709      3712      3715
      3707      3706      3709      3710      3707      3706      3709      3711
      3707      3706      3709      3712      3708      3706      3709      3710
      3708      3706      3709      3711      3708      3706      3709      3712
      3709      3712      3715      3716      3709      3712      3715      3717
      3709      3712      3715      3718      3710      3709      3712      3713
      3710      3709      3712      3714      3710      3709      3712      3715
      3711      3709      3712      3713      3711      3709      3712      3714
      3711      3709      3712      3715      3712      3715      3718      3719
      3712      3715      3718      3720      3712      3715      3718      3721
      3713      3712      3715      3716      3713      3712      3715      3717
      3713      3712      3715      3718      3714      3712      3715      3716
      3714      3712      3715      3717      3714      3712      3715      3718
      3715      3718      3721      3722      3715      3718      3721      3723
      3715      3718      3721      3724      3716      3715      3718      3719
      3716      3715      3718      3720      3716      3715      3718      3721
      3717      3715      3718      3719      3717      3715      3718      3720
      3717      3715      3718      3721      3718      3721      3724      3725
      3718      3721      3724      3726      3718      3721      3724      3727
      3719      3718      3721      3722      3719      3718      3721      3723
      3719      3718      3721      3724      3720      3718      3721      3722
      3720      3718      3721      3723      3720      3718      3721      3724
      3721      3724      3727      3728      3721      3724      3727      3729
      3721      3724      3727      3730      3722      3721      3724      3725
      3722      3721      3724      3726      3722      3721      3724      3727
      3723      3721      3724      3725      3723      3721      3724      3726
      3723      3721      3724      3727      3724      3727      3730      3731
      3724      3727      3730      3732      3724      3727      3730      3733
      3725      3724      3727      3728      3725      3724      3727      3729
      3725      3724      3727      3730      3726      3724      3727      3728
      3726      3724      3727      3729      3726      3724      3727      3730
      3727      3730      3733      3734      3727      3730      3733      3735
      3727      3730      3733      3736      3728      3727      3730      3731
      3728      3727      3730      3732      3728      3727      3730      3733
      3729      3727      3730      3731      3729      3727      3730      3732
      3729      3727      3730      3733      3730      3733      3736      3737
      3730      3733      3736      3738      3730      3733      3736      3739
      3731      3730      3733      3734      3731      3730      3733      3735
      3731      3730      3733      3736      3732      3730      3733      3734
      3732      3730      3733      3735      3732      3730      3733      3736
      3733      3736      3739      3740      3733      3736      3739      3741
      3733      3736      3739      3742      3734      3733      3736      3737
      3734      3733      3736      3738      3734      3733      3736      3739
      3735      3733      3736      3737      3735      3733      3736      3738
      3735      3733      3736      3739      3736      3739      3742      3743
      3736      3739      3742      3744      3736      3739      3742      3745
      3737      3736      3739      3740      3737      3736      3739      3741
      3737      3736      3739      3742      3738      3736      3739      3740
      3738      3736      3739      3741      3738      3736      3739      3742
      3739      3742      3745      3746      3739      3742      3745      3747
      3739      3742      3745      3748      3740      3739      3742      3743
      3740      3739      3742      3744      3740      3739      3742      3745
      3741      3739      3742      3743      3741      3739      3742      3744
      3741      3739      3742      3745      3742      3745      3748      3749
      3742      3745      3748      3750      3742      3745      3748      3751
      3743      3742      3745      3746      3743      3742      3745      3747
      3743      3742      3745      3748      3744      3742      3745      3746
      3744      3742      3745      3747      3744      3742      3745      3748
      3745      3748      3751      3752      3745      3748      3751      3753
      3745      3748      3751      3754      3746      3745      3748      3749
      3746      3745      3748      3750      3746      3745      3748      3751
      3747      3745      3748      3749      3747      3745      3748      3750
      3747      3745      3748      3751      3748      3751      3754      3755
      3748      3751      3754      3756      3748      3751      3754      3757
      3749      3748      3751      3752      3749      3748      3751      3753
      3749      3748      3751      3754      3750      3748      3751      3752
      3750      3748      3751      3753      3750      3748      3751      3754
      3751      3754      3757      3758      3751      3754      3757      3759
      3751      3754      3757      3760      3752      3751      3754      3755
      3752      3751      3754      3756      3752      3751      3754      3757
      3753      3751      3754      3755      3753      3751      3754      3756
      3753      3751      3754      3757      3754      3757      3760      3761
      3754      3757      3760      3762      3754      3757      3760      3763
      3755      3754      3757      3758      3755      3754      3757      3759
      3755      3754      3757      3760      3756      3754      3757      3758
      3756      3754      3757      3759      3756      3754      3757      3760
      3757      3760      3763      3764      3757      3760      3763      3765
      3757      3760      3763      3766      3758      3757      3760      3761
      3758      3757      3760      3762      3758      3757      3760      3763
      3759      3757      3760      3761      3759      3757      3760      3762
      3759      3757      3760      3763      3760      3763      3766      3767
      3760      3763      3766      3768      3760      3763      3766      3769
      3761      3760      3763      3764      3761      3760      3763      3765
      3761      3760      3763      3766      3762      3760      3763      3764
      3762      3760      3763      3765      3762      3760      3763      3766
      3763      3766      3769      3770      3763      3766      3769      3771
      3763      3766      3769      3772      3764      3763      3766      3767
      3764      3763      3766      3768      3764      3763      3766      3769
      3765      3763      3766      3767      3765      3763      3766      3768
      3765      3763      3766      3769      3766      3769      3772      3773
      3766      3769      3772      3774      3766      3769      3772      3775
      3767      3766      3769      3770      3767      3766      3769      3771
      3767      3766      3769      3772      3768      3766      3769      3770
      3768      3766      3769      3771      3768      3766      3769      3772
      3769      3772      3775      3776      3769      3772      3775      3777
      3769      3772      3775      3778      3770      3769      3772      3773
      3770      3769      3772      3774      3770      3769      3772      3775
      3771      3769      3772      3773      3771      3769      3772      3774
      3771      3769      3772      3775      3772      3775      3778      3779
      3772      3775      3778      3780      3772      3775      3778      3781
      3773      3772      3775      3776      3773      3772      3775      3777
      3773      3772      3775      3778      3774      3772      3775      3776
      3774      3772      3775      3777      3774      3772      3775      3778
      3775      3778      3781      3782      3775      3778      3781      3783
      3775      3778      3781      3784      3776      3775      3778      3779
      3776      3775      3778      3780      3776      3775      3778      3781
      3777      3775      3778      3779      3777      3775      3778      3780
      3777      3775      3778      3781      3778      3781      3784      3785
      3778      3781      3784      3786      3778      3781      3784      3787
      3779      3778      3781      3782      3779      3778      3781      3783
      3779      3778      3781      3784      3780      3778      3781      3782
      3780      3778      3781      3783      3780      3778      3781      3784
      3781      3784      3787      3788      3781      3784      3787      3789
      3781      3784      3787      3790      3782      3781      3784      3785
      3782      3781      3784      3786      3782      3781      3784      3787
      3783      3781      3784      3785      3783      3781      3784      3786
      3783      3781      3784      3787      3784      3787      3790      3791
      3784      3787      3790      3792      3784      3787      3790      3793
      3785      3784      3787      3788      3785      3784      3787      3789
      3785      3784      3787      3790      3786      3784      3787      3788
      3786      3784      3787      3789      3786      3784      3787      3790
      3787      3790      3793      3794      3787      3790      3793      3795
      3787      3790      3793      3796      3788      3787      3790      3791
      3788      3787      3790      3792      3788      3787      3790      3793
      3789      3787      3790      3791      3789      3787      3790      3792
      3789      3787      3790      3793      3790      3793      3796      3797
      3790      3793      3796      3798      3790      3793      3796      3799
      3791      3790      3793      3794      3791      3790      3793      3795
      3791      3790      3793      3796      3792      3790      3793      3794
      3792      3790      3793      3795      3792      3790      3793      3796
      3793      3796      3799      3800      3793      3796      3799      3801
      3793      3796      3799      3802      3794      3793      3796      3797
      3794      3793      3796      3798      3794      3793      3796      3799
      3795      3793      3796      3797      3795      3793      3796      3798
      3795      3793      3796      3799      3796      3799      3802      3803
      3796      3799      3802      3804      3796      3799      3802      3805
      3797      3796      3799      3800      3797      3796      3799      3801
      3797      3796      3799      3802      3798      3796      3799      3800
      3798      3796      3799      3801      3798      3796      3799      3802
      3799      3802      3805      3806      3799      3802      3805      3807
      3799      3802      3805      3808      3800      3799      3802      3803
      3800      3799      3802      3804      3800      3799      3802      3805
      3801      3799      3802      3803      3801      3799      3802      3804
      3801      3799      3802      3805      3802      3805      3808      3809
      3802      3805      3808      3810      3802      3805      3808      3811
      3803      3802      3805      3806      3803      3802      3805      3807
      3803      3802      3805      3808      3804      3802      3805      3806
      3804      3802      3805      3807      3804      3802      3805      3808
      3805      3808      3811      3812      3805      3808      3811      3813
      3805      3808      3811      3814      3806      3805      3808      3809
      3806      3805      3808      3810      3806      3805      3808      3811
      3807      3805      3808      3809      3807      3805      3808      3810
      3807      3805      3808      3811      3808      3811      3814      3815
      3808      3811      3814      3816      3808      3811      3814      3817
      3809      3808      3811      3812      3809      3808      3811      3813
      3809      3808      3811      3814      3810      3808      3811      3812
      3810      3808      3811      3813      3810      3808      3811      3814
      3811      3814      3817      3818      3811      3814      3817      3819
      3811      3814      3817      3820      3812      3811      3814      3815
      3812      3811      3814      3816      3812      3811      3814      3817
      3813      3811      3814      3815      3813      3811      3814      3816
      3813      3811      3814      3817      3814      3817      3820      3821
      3814      3817      3820      3822      3814      3817      3820      3823
      3815      3814      3817      3818      3815      3814      3817      3819
      3815      3814      3817      3820      3816      3814      3817      3818
      3816      3814      3817      3819      3816      3814      3817      3820
      3817      3820      3823      3824      3817      3820      3823      3825
      3817      3820      3823      3826      3818      3817      3820      3821
      3818      3817      3820      3822      3818      3817      3820      3823
      3819      3817      3820      3821      3819      3817      3820      3822
      3819      3817      3820      3823      3820      3823      3826      3827
      3820      3823      3826      3828      3820      3823      3826      3829
      3821      3820      3823      3824      3821      3820      3823      3825
      3821      3820      3823      3826      3822      3820      3823      3824
      3822      3820      3823      3825      3822      3820      3823      3826
      3823      3826      3829      3830      3823      3826      3829      3831
      3823      3826      3829      3832      3824      3823      3826      3827
      3824      3823      3826      3828      3824      3823      3826      3829
      3825      3823      3826      3827      3825      3823      3826      3828
      3825      3823      3826      3829      3826      3829      3832      3833
      3826      3829      3832      3834      3826      3829      3832      3835
      3827      3826      3829      3830      3827      3826      3829      3831
      3827      3826      3829      3832      3828      3826      3829      3830
      3828      3826      3829      3831      3828      3826      3829      3832
      3829      3832      3835      3836      3829      3832      3835      3837
      3829      3832      3835      3838      3830      3829      3832      3833
      3830      3829      3832      3834      3830      3829      3832      3835
      3831      3829      3832      3833      3831      3829      3832      3834
      3831      3829      3832      3835      3832      3835      3838      3839
      3832      3835      3838      3840      3832      3835      3838      3841
      3833      3832      3835      3836      3833      3832      3835      3837
      3833      3832      3835      3838      3834      3832      3835      3836
      3834      3832      3835      3837      3834      3832      3835      3838
      3835      3838      3841      3842      3835      3838      3841      3843
      3835      3838      3841      3844      3836      3835      3838      3839
      3836      3835      3838      3840      3836      3835      3838      3841
      3837      3835      3838      3839      3837      3835      3838      3840
      3837      3835      3838      3841      3838      3841      3844      3845
      3838      3841      3844      3846      3838      3841      3844      3847
      3839      3838      3841      3842      3839      3838      3841      3843
      3839      3838      3841      3844      3840      3838      3841      3842
      3840      3838      3841      3843      3840      3838      3841      3844
      3841      3844      3847      3848      3841      3844      3847      3849
      3841      3844      3847      3850      3842      3841      3844      3845
      3842      3841      3844      3846      3842      3841      3844      3847
      3843      3841      3844      3845      3843      3841      3844      3846
      3843      3841      3844      3847      3844      3847      3850      3851
      3844      3847      3850      3852      3844      3847      3850      3853
      3845      3844      3847      3848      3845      3844      3847      3849
      3845      3844      3847      3850      3846      3844      3847      3848
      3846      3844      3847      3849      3846      3844      3847      3850
      3847      3850      3853      3854      3847      3850      3853      3855
      3847      3850      3853      3856      3848      3847      3850      3851
      3848      3847      3850      3852      3848      3847      3850      3853
      3849      3847      3850      3851      3849      3847      3850      3852
      3849      3847      3850      3853      3850      3853      3856      3857
      3850      3853      3856      3858      3850      3853      3856      3859
      3851      3850      3853      3854      3851      3850      3853      3855
      3851      3850      3853      3856      3852      3850      3853      3854
      3852      3850      3853      3855      3852      3850      3853      3856
      3853      3856      3859      3860      3853      3856      3859      3861
      3853      3856      3859      3862      3854      3853      3856      3857
      3854      3853      3856      3858      3854      3853      3856      3859
      3855      3853      3856      3857      3855      3853      3856      3858
      3855      3853      3856      3859      3856      3859      3862      3863
      3856      3859      3862      3864      3856      3859      3862      3865
      3857      3856      3859      3860      3857      3856      3859      3861
      3857      3856      3859      3862      3858      3856      3859      3860
      3858      3856      3859      3861      3858      3856      3859      3862
      3859      3862      3865      3866      3859      3862      3865      3867
      3859      3862      3865      3868      3860      3859      3862      3863
      3860      3859      3862      3864      3860      3859      3862      3865
      3861      3859      3862      3863      3861      3859      3862      3864
      3861      3859      3862      3865      3862      3865      3868      3869
      3862      3865      3868      3870      3862      3865      3868      3871
      3863      3862      3865      3866      3863      3862      3865      3867
      3863      3862      3865      3868      3864      3862      3865      3866
      3864      3862      3865      3867      3864      3862      3865      3868
      3865      3868      3871      3872      3865      3868      3871      3873
      3865      3868      3871      3874      3866      3865      3868      3869
      3866      3865      3868      3870      3866      3865      3868      3871
      3867      3865      3868      3869      3867      3865      3868      3870
      3867      3865      3868      3871      3868      3871      3874      3875
      3868      3871      3874      3876      3868      3871      3874      3877
      3869      3868      3871      3872      3869      3868      3871      3873
      3869      3868      3871      3874      3870      3868      3871      3872
      3870      3868      3871      3873      3870      3868      3871      3874
      3871      3874      3877      3878      3871      3874      3877      3879
      3871      3874      3877      3880      3872      3871      3874      3875
      3872      3871      3874      3876      3872      3871      3874      3877
      3873      3871      3874      3875      3873      3871      3874      3876
      3873      3871      3874      3877      3874      3877      3880      3881
      3874      3877      3880      3882      3874      3877      3880      3883
      3875      3874      3877      3878      3875      3874      3877      3879
      3875      3874      3877      3880      3876      3874      3877      3878
      3876      3874      3877      3879      3876      3874      3877      3880
      3877      3880      3883      3884      3877      3880      3883      3885
      3877      3880      3883      3886      3878      3877      3880      3881
      3878      3877      3880      3882      3878      3877      3880      3883
      3879      3877      3880      3881      3879      3877      3880      3882
      3879      3877      3880      3883      3880      3883      3886      3887
      3880      3883      3886      3888      3880      3883      3886      3889
      3881      3880      3883      3884      3881      3880      3883      3885
      3881      3880      3883      3886      3882      3880      3883      3884
      3882      3880      3883      3885      3882      3880      3883      3886
      3883      3886      3889      3890      3883      3886      3889      3891
      3883      3886      3889      3892      3884      3883      3886      3887
      3884      3883      3886      3888      3884      3883      3886      3889
      3885      3883      3886      3887      3885      3883      3886      3888
      3885      3883      3886      3889      3886      3889      3892      3893
      3886      3889      3892      3894      3886      3889      3892      3895
      3887      3886      3889      3890      3887      3886      3889      3891
      3887      3886      3889      3892      3888      3886      3889      3890
      3888      3886      3889      3891      3888      3886      3889      3892
      3889      3892      3895      3896      3889      3892      3895      3897
      3889      3892      3895      3898      3890      3889      3892      3893
      3890      3889      3892      3894      3890      3889      3892      3895
      3891      3889      3892      3893      3891      3889      3892      3894
      3891      3889      3892      3895      3892      3895      3898      3899
      3892      3895      3898      3900      3892      3895      3898      3901
      3893      3892      3895      3896      3893      3892      3895      3897
      3893      3892      3895      3898      3894      3892      3895      3896
      3894      3892      3895      3897      3894      3892      3895      3898
      3895      3898      3901      3902      3895      3898      3901      3903
      3895      3898      3901      3904      3896      3895      3898      3899
      3896      3895      3898      3900      3896      3895      3898      3901
      3897      3895      3898      3899      3897      3895      3898      3900
      3897      3895      3898      3901      3898      3901      3904      3905
      3898      3901      3904      3906      3898      3901      3904      3907
      3899      3898      3901      3902      3899      3898      3901      3903
      3899      3898      3901      3904      3900      3898      3901      3902
      3900      3898      3901      3903      3900      3898      3901      3904
      3901      3904      3907      3908      3901      3904      3907      3909
      3901      3904      3907      3910      3902      3901      3904      3905
      3902      3901      3904      3906      3902      3901      3904      3907
      3903      3901      3904      3905      3903      3901      3904      3906
      3903      3901      3904      3907      3904      3907      3910      3911
      3904      3907      3910      3912      3904      3907      3910      3913
      3905      3904      3907      3908      3905      3904      3907      3909
      3905      3904      3907      3910      3906      3904      3907      3908
      3906      3904      3907      3909      3906      3904      3907      3910
      3907      3910      3913      3914      3907      3910      3913      3915
      3907      3910      3913      3916      3908      3907      3910      3911
      3908      3907      3910      3912      3908      3907      3910      3913
      3909      3907      3910      3911      3909      3907      3910      3912
      3909      3907      3910      3913      3910      3913      3916      3917
      3910      3913      3916      3918      3910      3913      3916      3919
      3911      3910      3913      3914      3911      3910      3913      3915
      3911      3910      3913      3916      3912      3910      3913      3914
      3912      3910      3913      3915      3912      3910      3913      3916
      3913      3916      3919      3920      3913      3916      3919      3921
      3913      3916      3919      3922      3914      3913      3916      3917
      3914      3913      3916      3918      3914      3913      3916      3919
      3915      3913      3916      3917      3915      3913      3916      3918
      3915      3913      3916      3919      3916      3919      3922      3923
      3916      3919      3922      3924      3916      3919      3922      3925
      3917      3916      3919      3920      3917      3916      3919      3921
      3917      3916      3919      3922      3918      3916      3919      3920
      3918      3916      3919      3921      3918      3916      3919      3922
      3919      3922      3925      3926      3919      3922      3925      3927
      3919      3922      3925      3928      3920      3919      3922      3923
      3920      3919      3922      3924      3920      3919      3922      3925
      3921      3919      3922      3923      3921      3919      3922      3924
      3921      3919      3922      3925      3922      3925      3928      3929
      3922      3925      3928      3930      3922      3925      3928      3931
      3923      3922      3925      3926      3923      3922      3925      3927
      3923      3922      3925      3928      3924      3922      3925      3926
      3924      3922      3925      3927      3924      3922      3925      3928
      3925      3928      3931      3932      3925      3928      3931      3933
      3925      3928      3931      3934      3926      3925      3928      3929
      3926      3925      3928      3930      3926      3925      3928      3931
      3927      3925      3928      3929      3927      3925      3928      3930
      3927      3925      3928      3931      3928      3931      3934      3935
      3928      3931      3934      3936      3928      3931      3934      3937
      3929      3928      3931      3932      3929      3928      3931      3933
      3929      3928      3931      3934      3930      3928      3931      3932
      3930      3928      3931      3933      3930      3928      3931      3934
      3931      3934      3937      3938      3931      3934      3937      3939
      3931      3934      3937      3940      3932      3931      3934      3935
      3932      3931      3934      3936      3932      3931      3934      3937
      3933      3931      3934      3935      3933      3931      3934      3936
      3933      3931      3934      3937      3934      3937      3940      3941
      3934      3937      3940      3942      3934      3937      3940      3943
      3935      3934      3937      3938      3935      3934      3937      3939
      3935      3934      3937      3940      3936      3934      3937      3938
      3936      3934      3937      3939      3936      3934      3937      3940
      3937      3940      3943      3944      3937      3940      3943      3945
      3937      3940      3943      3946      3938      3937      3940      3941
      3938      3937      3940      3942      3938      3937      3940      3943
      3939      3937      3940      3941      3939      3937      3940      3942
      3939      3937      3940      3943      3940      3943      3946      3947
      3940      3943      3946      3948      3940      3943      3946      3949
      3941      3940      3943      3944      3941      3940      3943      3945
      3941      3940      3943      3946      3942      3940      3943      3944
      3942      3940      3943      3945      3942      3940      3943      3946
      3943      3946      3949      3950      3943      3946      3949      3951
      3943      3946      3949      3952      3944      3943      3946      3947
      3944      3943      3946      3948      3944      3943      3946      3949
      3945      3943      3946      3947      3945      3943      3946      3948
      3945      3943      3946      3949      3946      3949      3952      3953
      3946      3949      3952      3954      3946      3949      3952      3955
      3947      3946      3949      3950      3947      3946      3949      3951
      3947      3946      3949      3952      3948      3946      3949      3950
      3948      3946      3949      3951      3948      3946      3949      3952
      3949      3952      3955      3956      3949      3952      3955      3957
      3949      3952      3955      3958      3950      3949      3952      3953
      3950      3949      3952      3954      3950      3949      3952      3955
      3951      3949      3952      3953      3951      3949      3952      3954
      3951      3949      3952      3955      3952      3955      3958      3959
      3952      3955      3958      3960      3952      3955      3958      3961
      3953      3952      3955      3956      3953      3952      3955      3957
      3953      3952      3955      3958      3954      3952      3955      3956
      3954      3952      3955      3957      3954      3952      3955      3958
      3955      3958      3961      3962      3955      3958      3961      3963
      3955      3958      3961      3964      3956      3955      3958      3959
      3956      3955      3958      3960      3956      3955      3958      3961
      3957      3955      3958      3959      3957      3955      3958      3960
      3957      3955      3958      3961      3958      3961      3964      3965
      3958      3961      3964      3966      3958      3961      3964      3967
      3959      3958      3961      3962      3959      3958      3961      3963
      3959      3958      3961      3964      3960      3958      3961      3962
      3960      3958      3961      3963      3960      3958      3961      3964
      3961      3964      3967      3968      3961      3964      3967      3969
      3961      3964      3967      3970      3962      3961      3964      3965
      3962      3961      3964      3966      3962      3961      3964      3967
      3963      3961      3964      3965      3963      3961      3964      3966
      3963      3961      3964      3967      3964      3967      3970      3971
      3964      3967      3970      3972      3964      3967      3970      3973
      3965      3964      3967      3968      3965      3964      3967      3969
      3965      3964      3967      3970      3966      3964      3967      3968
      3966      3964      3967      3969      3966      3964      3967      3970
      3967      3970      3973      3974      3967      3970      3973      3975
      3967      3970      3973      3976      3968      3967      3970      3971
      3968      3967      3970      3972      3968      3967      3970      3973
      3969      3967      3970      3971      3969      3967      3970      3972
      3969      3967      3970      3973      3970      3973      3976      3977
      3970      3973      3976      3978      3970      3973      3976      3979
      3971      3970      3973      3974      3971      3970      3973      3975
      3971      3970      3973      3976      3972      3970      3973      3974
      3972      3970      3973      3975      3972      3970      3973      3976
      3973      3976      3979      3980      3973      3976      3979      3981
      3973      3976      3979      3982      3974      3973      3976      3977
      3974      3973      3976      3978      3974      3973      3976      3979
      3975      3973      3976      3977      3975      3973      3976      3978
      3975      3973      3976      3979      3977      3976      3979      3980
      3977      3976      3979      3981      3977      3976      3979      3982
      3978      3976      3979      3980      3978      3976      3979      3981
      3978      3976      3979      3982      3983      3987      3990      3991
      3983      3987      3990      3992      3983      3987      3990      3993
      3984      3983      3987      3988      3984      3983      3987      3989
      3984      3983      3987      3990      3985      3983      3987      3988
      3985      3983      3987      3989      3985      3983      3987      3990
      3986      3983      3987      3988      3986      3983      3987      3989
      3986      3983      3987      3990      3987      3990      3993      3994
      3987      3990      3993      3995      3987      3990      3993      3996
      3988      3987      3990      3991      3988      3987      3990      3992
      3988      3987      3990      3993      3989      3987      3990      3991
      3989      3987      3990      3992      3989      3987      3990      3993
      3990      3993      3996      3997      3990      3993      3996      3998
      3990      3993      3996      3999      3991      3990      3993      3994
      3991      3990      3993      3995      3991      3990      3993      3996
      3992      3990      3993      3994      3992      3990      3993      3995
      3992      3990      3993      3996      3993      3996      3999      4000
      3993      3996      3999      4001      3993      3996      3999      4002
      3994      3993      3996      3997      3994      3993      3996      3998
      3994      3993      3996      3999      3995      3993      3996      3997
      3995      3993      3996      3998      3995      3993      3996      3999
      3996      3999      4002      4003      3996      3999      4002      4004
      3996      3999      4002      4005      3997      3996      3999      4000
      3997      3996      3999      4001      3997      3996      3999      4002
      3998      3996      3999      4000      3998      3996      3999      4001
      3998      3996      3999      4002      3999      4002      4005      4006
      3999      4002      4005      4007      3999      4002      4005      4008
      4000      3999      4002      4003      4000      3999      4002      4004
      4000      3999      4002      4005      4001      3999      4002      4003
      4001      3999      4002      4004      4001      3999      4002      4005
      4002      4005      4008      4009      4002      4005      4008      4010
      4002      4005      4008      4011      4003      4002      4005      4006
      4003      4002      4005      4007      4003      4002      4005      4008
      4004      4002      4005      4006      4004      4002      4005      4007
      4004      4002      4005      4008      4005      4008      4011      4012
      4005      4008      4011      4013      4005      4008      4011      4014
      4006      4005      4008      4009      4006      4005      4008      4010
      4006      4005      4008      4011      4007      4005      4008      4009
      4007      4005      4008      4010      4007      4005      4008      4011
      4008      4011      4014      4015      4008      4011      4014      4016
      4008      4011      4014      4017      4009      4008      4011      4012
      4009      4008      4011      4013      4009      4008      4011      4014
      4010      4008      4011      4012      4010      4008      4011      4013
      4010      4008      4011      4014      4011      4014      4017      4018
      4011      4014      4017      4019      4011      4014      4017      4020
      4012      4011      4014      4015      4012      4011      4014      4016
      4012      4011      4014      4017      4013      4011      4014      4015
      4013      4011      4014      4016      4013      4011      4014      4017
      4014      4017      4020      4021      4014      4017      4020      4022
      4014      4017      4020      4023      4015      4014      4017      4018
      4015      4014      4017      4019      4015      4014      4017      4020
      4016      4014      4017      4018      4016      4014      4017      4019
      4016      4014      4017      4020      4017      4020      4023      4024
      4017      4020      4023      4025      4017      4020      4023      4026
      4018      4017      4020      4021      4018      4017      4020      4022
      4018      4017      4020      4023      4019      4017      4020      4021
      4019      4017      4020      4022      4019      4017      4020      4023
      4020      4023      4026      4027      4020      4023      4026      4028
      4020      4023      4026      4029      4021      4020      4023      4024
      4021      4020      4023      4025      4021      4020      4023      4026
      4022      4020      4023      4024      4022      4020      4023      4025
      4022      4020      4023      4026      4023      4026      4029      4030
      4023      4026      4029      4031      4023      4026      4029      4032
      4024      4023      4026      4027      4024      4023      4026      4028
      4024      4023      4026      4029      4025      4023      4026      4027
      4025      4023      4026      4028      4025      4023      4026      4029
      4026      4029      4032      4033      4026      4029      4032      4034
      4026      4029      4032      4035      4027      4026      4029      4030
      4027      4026      4029      4031      4027      4026      4029      4032
      4028      4026      4029      4030      4028      4026      4029      4031
      4028      4026      4029      4032      4029      4032      4035      4036
      4029      4032      4035      4037      4029      4032      4035      4038
      4030      4029      4032      4033      4030      4029      4032      4034
      4030      4029      4032      4035      4031      4029      4032      4033
      4031      4029      4032      4034      4031      4029      4032      4035
      4032      4035      4038      4039      4032      4035      4038      4040
      4032      4035      4038      4041      4033      4032      4035      4036
      4033      4032      4035      4037      4033      4032      4035      4038
      4034      4032      4035      4036      4034      4032      4035      4037
      4034      4032      4035      4038      4035      4038      4041      4042
      4035      4038      4041      4043      4035      4038      4041      4044
      4036      4035      4038      4039      4036      4035      4038      4040
      4036      4035      4038      4041      4037      4035      4038      4039
      4037      4035      4038      4040      4037      4035      4038      4041
      4038      4041      4044      4045      4038      4041      4044      4046
      4038      4041      4044      4047      4039      4038      4041      4042
      4039      4038      4041      4043      4039      4038      4041      4044
      4040      4038      4041      4042      4040      4038      4041      4043
      4040      4038      4041      4044      4041      4044      4047      4048
      4041      4044      4047      4049      4041      4044      4047      4050
      4042      4041      4044      4045      4042      4041      4044      4046
      4042      4041      4044      4047      4043      4041      4044      4045
      4043      4041      4044      4046      4043      4041      4044      4047
      4044      4047      4050      4051      4044      4047      4050      4052
      4044      4047      4050      4053      4045      4044      4047      4048
      4045      4044      4047      4049      4045      4044      4047      4050
      4046      4044      4047      4048      4046      4044      4047      4049
      4046      4044      4047      4050      4047      4050      4053      4054
      4047      4050      4053      4055      4047      4050      4053      4056
      4048      4047      4050      4051      4048      4047      4050      4052
      4048      4047      4050      4053      4049      4047      4050      4051
      4049      4047      4050      4052      4049      4047      4050      4053
      4050      4053      4056      4057      4050      4053      4056      4058
      4050      4053      4056      4059      4051      4050      4053      4054
      4051      4050      4053      4055      4051      4050      4053      4056
      4052      4050      4053      4054      4052      4050      4053      4055
      4052      4050      4053      4056      4053      4056      4059      4060
      4053      4056      4059      4061      4053      4056      4059      4062
      4054      4053      4056      4057      4054      4053      4056      4058
      4054      4053      4056      4059      4055      4053      4056      4057
      4055      4053      4056      4058      4055      4053      4056      4059
      4056      4059      4062      4063      4056      4059      4062      4064
      4056      4059      4062      4065      4057      4056      4059      4060
      4057      4056      4059      4061      4057      4056      4059      4062
      4058      4056      4059      4060      4058      4056      4059      4061
      4058      4056      4059      4062      4059      4062      4065      4066
      4059      4062      4065      4067      4059      4062      4065      4068
      4060      4059      4062      4063      4060      4059      4062      4064
      4060      4059      4062      4065      4061      4059      4062      4063
      4061      4059      4062      4064      4061      4059      4062      4065
      4062      4065      4068      4069      4062      4065      4068      4070
      4062      4065      4068      4071      4063      4062      4065      4066
      4063      4062      4065      4067      4063      4062      4065      4068
      4064      4062      4065      4066      4064      4062      4065      4067
      4064      4062      4065      4068      4065      4068      4071      4072
      4065      4068      4071      4073      4065      4068      4071      4074
      4066      4065      4068      4069      4066      4065      4068      4070
      4066      4065      4068      4071      4067      4065      4068      4069
      4067      4065      4068      4070      4067      4065      4068      4071
      4068      4071      4074      4075      4068      4071      4074      4076
      4068      4071      4074      4077      4069      4068      4071      4072
      4069      4068      4071      4073      4069      4068      4071      4074
      4070      4068      4071      4072      4070      4068      4071      4073
      4070      4068      4071      4074      4071      4074      4077      4078
      4071      4074      4077      4079      4071      4074      4077      4080
      4072      4071      4074      4075      4072      4071      4074      4076
      4072      4071      4074      4077      4073      4071      4074      4075
      4073      4071      4074      4076      4073      4071      4074      4077
      4074      4077      4080      4081      4074      4077      4080      4082
      4074      4077      4080      4083      4075      4074      4077      4078
      4075      4074      4077      4079      4075      4074      4077      4080
      4076      4074      4077      4078      4076      4074      4077      4079
      4076      4074      4077      4080      4077      4080      4083      4084
      4077      4080      4083      4085      4077      4080      4083      4086
      4078      4077      4080      4081      4078      4077      4080      4082
      4078      4077      4080      4083      4079      4077      4080      4081
      4079      4077      4080      4082      4079      4077      4080      4083
      4080      4083      4086      4087      4080      4083      4086      4088
      4080      4083      4086      4089      4081      4080      4083      4084
      4081      4080      4083      4085      4081      4080      4083      4086
      4082      4080      4083      4084      4082      4080      4083      4085
      4082      4080      4083      4086      4083      4086      4089      4090
      4083      4086      4089      4091      4083      4086      4089      4092
      4084      4083      4086      4087      4084      4083      4086      4088
      4084      4083      4086      4089      4085      4083      4086      4087
      4085      4083      4086      4088      4085      4083      4086      4089
      4086      4089      4092      4093      4086      4089      4092      4094
      4086      4089      4092      4095      4087      4086      4089      4090
      4087      4086      4089      4091      4087      4086      4089      4092
      4088      4086      4089      4090      4088      4086      4089      4091
      4088      4086      4089      4092      4089      4092      4095      4096
      4089      4092      4095      4097      4089      4092      4095      4098
      4090      4089      4092      4093      4090      4089      4092      4094
      4090      4089      4092      4095      4091      4089      4092      4093
      4091      4089      4092      4094      4091      4089      4092      4095
      4092      4095      4098      4099      4092      4095      4098      4100
      4092      4095      4098      4101      4093      4092      4095      4096
      4093      4092      4095      4097      4093      4092      4095      4098
      4094      4092      4095      4096      4094      4092      4095      4097
      4094      4092      4095      4098      4095      4098      4101      4102
      4095      4098      4101      4103      4095      4098      4101      4104
      4096      4095      4098      4099      4096      4095      4098      4100
      4096      4095      4098      4101      4097      4095      4098      4099
      4097      4095      4098      4100      4097      4095      4098      4101
      4098      4101      4104      4105      4098      4101      4104      4106
      4098      4101      4104      4107      4099      4098      4101      4102
      4099      4098      4101      4103      4099      4098      4101      4104
      4100      4098      4101      4102      4100      4098      4101      4103
      4100      4098      4101      4104      4101      4104      4107      4108
      4101      4104      4107      4109      4101      4104      4107      4110
      4102      4101      4104      4105      4102      4101      4104      4106
      4102      4101      4104      4107      4103      4101      4104      4105
      4103      4101      4104      4106      4103      4101      4104      4107
      4104      4107      4110      4111      4104      4107      4110      4112
      4104      4107      4110      4113      4105      4104      4107      4108
      4105      4104      4107      4109      4105      4104      4107      4110
      4106      4104      4107      4108      4106      4104      4107      4109
      4106      4104      4107      4110      4107      4110      4113      4114
      4107      4110      4113      4115      4107      4110      4113      4116
      4108      4107      4110      4111      4108      4107      4110      4112
      4108      4107      4110      4113      4109      4107      4110      4111
      4109      4107      4110      4112      4109      4107      4110      4113
      4110      4113      4116      4117      4110      4113      4116      4118
      4110      4113      4116      4119      4111      4110      4113      4114
      4111      4110      4113      4115      4111      4110      4113      4116
      4112      4110      4113      4114      4112      4110      4113      4115
      4112      4110      4113      4116      4113      4116      4119      4120
      4113      4116      4119      4121      4113      4116      4119      4122
      4114      4113      4116      4117      4114      4113      4116      4118
      4114      4113      4116      4119      4115      4113      4116      4117
      4115      4113      4116      4118      4115      4113      4116      4119
      4116      4119      4122      4123      4116      4119      4122      4124
      4116      4119      4122      4125      4117      4116      4119      4120
      4117      4116      4119      4121      4117      4116      4119      4122
      4118      4116      4119      4120      4118      4116      4119      4121
      4118      4116      4119      4122      4119      4122      4125      4126
      4119      4122      4125      4127      4119      4122      4125      4128
      4120      4119      4122      4123      4120      4119      4122      4124
      4120      4119      4122      4125      4121      4119      4122      4123
      4121      4119      4122      4124      4121      4119      4122      4125
      4122      4125      4128      4129      4122      4125      4128      4130
      4122      4125      4128      4131      4123      4122      4125      4126
      4123      4122      4125      4127      4123      4122      4125      4128
      4124      4122      4125      4126      4124      4122      4125      4127
      4124      4122      4125      4128      4125      4128      4131      4132
      4125      4128      4131      4133      4125      4128      4131      4134
      4126      4125      4128      4129      4126      4125      4128      4130
      4126      4125      4128      4131      4127      4125      4128      4129
      4127      4125      4128      4130      4127      4125      4128      4131
      4128      4131      4134      4135      4128      4131      4134      4136
      4128      4131      4134      4137      4129      4128      4131      4132
      4129      4128      4131      4133      4129      4128      4131      4134
      4130      4128      4131      4132      4130      4128      4131      4133
      4130      4128      4131      4134      4131      4134      4137      4138
      4131      4134      4137      4139      4131      4134      4137      4140
      4132      4131      4134      4135      4132      4131      4134      4136
      4132      4131      4134      4137      4133      4131      4134      4135
      4133      4131      4134      4136      4133      4131      4134      4137
      4134      4137      4140      4141      4134      4137      4140      4142
      4134      4137      4140      4143      4135      4134      4137      4138
      4135      4134      4137      4139      4135      4134      4137      4140
      4136      4134      4137      4138      4136      4134      4137      4139
      4136      4134      4137      4140      4137      4140      4143      4144
      4137      4140      4143      4145      4137      4140      4143      4146
      4138      4137      4140      4141      4138      4137      4140      4142
      4138      4137      4140      4143      4139      4137      4140      4141
      4139      4137      4140      4142      4139      4137      4140      4143
      4140      4143      4146      4147      4140      4143      4146      4148
      4140      4143      4146      4149      4141      4140      4143      4144
      4141      4140      4143      4145      4141      4140      4143      4146
      4142      4140      4143      4144      4142      4140      4143      4145
      4142      4140      4143      4146      4143      4146      4149      4150
      4143      4146      4149      4151      4143      4146      4149      4152
      4144      4143      4146      4147      4144      4143      4146      4148
      4144      4143      4146      4149      4145      4143      4146      4147
      4145      4143      4146      4148      4145      4143      4146      4149
      4146      4149      4152      4153      4146      4149      4152      4154
      4146      4149      4152      4155      4147      4146      4149      4150
      4147      4146      4149      4151      4147      4146      4149      4152
      4148      4146      4149      4150      4148      4146      4149      4151
      4148      4146      4149      4152      4149      4152      4155      4156
      4149      4152      4155      4157      4149      4152      4155      4158
      4150      4149      4152      4153      4150      4149      4152      4154
      4150      4149      4152      4155      4151      4149      4152      4153
      4151      4149      4152      4154      4151      4149      4152      4155
      4152      4155      4158      4159      4152      4155      4158      4160
      4152      4155      4158      4161      4153      4152      4155      4156
      4153      4152      4155      4157      4153      4152      4155      4158
      4154      4152      4155      4156      4154      4152      4155      4157
      4154      4152      4155      4158      4155      4158      4161      4162
      4155      4158      4161      4163      4155      4158      4161      4164
      4156      4155      4158      4159      4156      4155      4158      4160
      4156      4155      4158      4161      4157      4155      4158      4159
      4157      4155      4158      4160      4157      4155      4158      4161
      4158      4161      4164      4165      4158      4161      4164      4166
      4158      4161      4164      4167      4159      4158      4161      4162
      4159      4158      4161      4163      4159      4158      4161      4164
      4160      4158      4161      4162      4160      4158      4161      4163
      4160      4158      4161      4164      4161      4164      4167      4168
      4161      4164      4167      4169      4161      4164      4167      4170
      4162      4161      4164      4165      4162      4161      4164      4166
      4162      4161      4164      4167      4163      4161      4164      4165
      4163      4161      4164      4166      4163      4161      4164      4167
      4164      4167      4170      4171      4164      4167      4170      4172
      4164      4167      4170      4173      4165      4164      4167      4168
      4165      4164      4167      4169      4165      4164      4167      4170
      4166      4164      4167      4168      4166      4164      4167      4169
      4166      4164      4167      4170      4167      4170      4173      4174
      4167      4170      4173      4175      4167      4170      4173      4176
      4168      4167      4170      4171      4168      4167      4170      4172
      4168      4167      4170      4173      4169      4167      4170      4171
      4169      4167      4170      4172      4169      4167      4170      4173
      4170      4173      4176      4177      4170      4173      4176      4178
      4170      4173      4176      4179      4171      4170      4173      4174
      4171      4170      4173      4175      4171      4170      4173      4176
      4172      4170      4173      4174      4172      4170      4173      4175
      4172      4170      4173      4176      4173      4176      4179      4180
      4173      4176      4179      4181      4173      4176      4179      4182
      4174      4173      4176      4177      4174      4173      4176      4178
      4174      4173      4176      4179      4175      4173      4176      4177
      4175      4173      4176      4178      4175      4173      4176      4179
      4176      4179      4182      4183      4176      4179      4182      4184
      4176      4179      4182      4185      4177      4176      4179      4180
      4177      4176      4179      4181      4177      4176      4179      4182
      4178      4176      4179      4180      4178      4176      4179      4181
      4178      4176      4179      4182      4179      4182      4185      4186
      4179      4182      4185      4187      4179      4182      4185      4188
      4180      4179      4182      4183      4180      4179      4182      4184
      4180      4179      4182      4185      4181      4179      4182      4183
      4181      4179      4182      4184      4181      4179      4182      4185
      4182      4185      4188      4189      4182      4185      4188      4190
      4182      4185      4188      4191      4183      4182      4185      4186
      4183      4182      4185      4187      4183      4182      4185      4188
      4184      4182      4185      4186      4184      4182      4185      4187
      4184      4182      4185      4188      4185      4188      4191      4192
      4185      4188      4191      4193      4185      4188      4191      4194
      4186      4185      4188      4189      4186      4185      4188      4190
      4186      4185      4188      4191      4187      4185      4188      4189
      4187      4185      4188      4190      4187      4185      4188      4191
      4188      4191      4194      4195      4188      4191      4194      4196
      4188      4191      4194      4197      4189      4188      4191      4192
      4189      4188      4191      4193      4189      4188      4191      4194
      4190      4188      4191      4192      4190      4188      4191      4193
      4190      4188      4191      4194      4191      4194      4197      4198
      4191      4194      4197      4199      4191      4194      4197      4200
      4192      4191      4194      4195      4192      4191      4194      4196
      4192      4191      4194      4197      4193      4191      4194      4195
      4193      4191      4194      4196      4193      4191      4194      4197
      4194      4197      4200      4201      4194      4197      4200      4202
      4194      4197      4200      4203      4195      4194      4197      4198
      4195      4194      4197      4199      4195      4194      4197      4200
      4196      4194      4197      4198      4196      4194      4197      4199
      4196      4194      4197      4200      4197      4200      4203      4204
      4197      4200      4203      4205      4197      4200      4203      4206
      4198      4197      4200      4201      4198      4197      4200      4202
      4198      4197      4200      4203      4199      4197      4200      4201
      4199      4197      4200      4202      4199      4197      4200      4203
      4200      4203      4206      4207      4200      4203      4206      4208
      4200      4203      4206      4209      4201      4200      4203      4204
      4201      4200      4203      4205      4201      4200      4203      4206
      4202      4200      4203      4204      4202      4200      4203      4205
      4202      4200      4203      4206      4203      4206      4209      4210
      4203      4206      4209      4211      4203      4206      4209      4212
      4204      4203      4206      4207      4204      4203      4206      4208
      4204      4203      4206      4209      4205      4203      4206      4207
      4205      4203      4206      4208      4205      4203      4206      4209
      4206      4209      4212      4213      4206      4209      4212      4214
      4206      4209      4212      4215      4207      4206      4209      4210
      4207      4206      4209      4211      4207      4206      4209      4212
      4208      4206      4209      4210      4208      4206      4209      4211
      4208      4206      4209      4212      4209      4212      4215      4216
      4209      4212      4215      4217      4209      4212      4215      4218
      4210      4209      4212      4213      4210      4209      4212      4214
      4210      4209      4212      4215      4211      4209      4212      4213
      4211      4209      4212      4214      4211      4209      4212      4215
      4212      4215      4218      4219      4212      4215      4218      4220
      4212      4215      4218      4221      4213      4212      4215      4216
      4213      4212      4215      4217      4213      4212      4215      4218
      4214      4212      4215      4216      4214      4212      4215      4217
      4214      4212      4215      4218      4215      4218      4221      4222
      4215      4218      4221      4223      4215      4218      4221      4224
      4216      4215      4218      4219      4216      4215      4218      4220
      4216      4215      4218      4221      4217      4215      4218      4219
      4217      4215      4218      4220      4217      4215      4218      4221
      4218      4221      4224      4225      4218      4221      4224      4226
      4218      4221      4224      4227      4219      4218      4221      4222
      4219      4218      4221      4223      4219      4218      4221      4224
      4220      4218      4221      4222      4220      4218      4221      4223
      4220      4218      4221      4224      4221      4224      4227      4228
      4221      4224      4227      4229      4221      4224      4227      4230
      4222      4221      4224      4225      4222      4221      4224      4226
      4222      4221      4224      4227      4223      4221      4224      4225
      4223      4221      4224      4226      4223      4221      4224      4227
      4224      4227      4230      4231      4224      4227      4230      4232
      4224      4227      4230      4233      4225      4224      4227      4228
      4225      4224      4227      4229      4225      4224      4227      4230
      4226      4224      4227      4228      4226      4224      4227      4229
      4226      4224      4227      4230      4227      4230      4233      4234
      4227      4230      4233      4235      4227      4230      4233      4236
      4228      4227      4230      4231      4228      4227      4230      4232
      4228      4227      4230      4233      4229      4227      4230      4231
      4229      4227      4230      4232      4229      4227      4230      4233
      4230      4233      4236      4237      4230      4233      4236      4238
      4230      4233      4236      4239      4231      4230      4233      4234
      4231      4230      4233      4235      4231      4230      4233      4236
      4232      4230      4233      4234      4232      4230      4233      4235
      4232      4230      4233      4236      4233      4236      4239      4240
      4233      4236      4239      4241      4233      4236      4239      4242
      4234      4233      4236      4237      4234      4233      4236      4238
      4234      4233      4236      4239      4235      4233      4236      4237
      4235      4233      4236      4238      4235      4233      4236      4239
      4236      4239      4242      4243      4236      4239      4242      4244
      4236      4239      4242      4245      4237      4236      4239      4240
      4237      4236      4239      4241      4237      4236      4239      4242
      4238      4236      4239      4240      4238      4236      4239      4241
      4238      4236      4239      4242      4239      4242      4245      4246
      4239      4242      4245      4247      4239      4242      4245      4248
      4240      4239      4242      4243      4240      4239      4242      4244
      4240      4239      4242      4245      4241      4239      4242      4243
      4241      4239      4242      4244      4241      4239      4242      4245
      4242      4245      4248      4249      4242      4245      4248      4250
      4242      4245      4248      4251      4243      4242      4245      4246
      4243      4242      4245      4247      4243      4242      4245      4248
      4244      4242      4245      4246      4244      4242      4245      4247
      4244      4242      4245      4248      4245      4248      4251      4252
      4245      4248      4251      4253      4245      4248      4251      4254
      4246      4245      4248      4249      4246      4245      4248      4250
      4246      4245      4248      4251      4247      4245      4248      4249
      4247      4245      4248      4250      4247      4245      4248      4251
      4248      4251      4254      4255      4248      4251      4254      4256
      4248      4251      4254      4257      4249      4248      4251      4252
      4249      4248      4251      4253      4249      4248      4251      4254
      4250      4248      4251      4252      4250      4248      4251      4253
      4250      4248      4251      4254      4251      4254      4257      4258
      4251      4254      4257      4259      4251      4254      4257      4260
      4252      4251      4254      4255      4252      4251      4254      4256
      4252      4251      4254      4257      4253      4251      4254      4255
      4253      4251      4254      4256      4253      4251      4254      4257
      4254      4257      4260      4261      4254      4257      4260      4262
      4254      4257      4260      4263      4255      4254      4257      4258
      4255      4254      4257      4259      4255      4254      4257      4260
      4256      4254      4257      4258      4256      4254      4257      4259
      4256      4254      4257      4260      4257      4260      4263      4264
      4257      4260      4263      4265      4257      4260      4263      4266
      4258      4257      4260      4261      4258      4257      4260      4262
      4258      4257      4260      4263      4259      4257      4260      4261
      4259      4257      4260      4262      4259      4257      4260      4263
      4260      4263      4266      4267      4260      4263      4266      4268
      4260      4263      4266      4269      4261      4260      4263      4264
      4261      4260      4263      4265      4261      4260      4263      4266
      4262      4260      4263      4264      4262      4260      4263      4265
      4262      4260      4263      4266      4263      4266      4269      4270
      4263      4266      4269      4271      4263      4266      4269      4272
      4264      4263      4266      4267      4264      4263      4266      4268
      4264      4263      4266      4269      4265      4263      4266      4267
      4265      4263      4266      4268      4265      4263      4266      4269
      4266      4269      4272      4273      4266      4269      4272      4274
      4266      4269      4272      4275      4267      4266      4269      4270
      4267      4266      4269      4271      4267      4266      4269      4272
      4268      4266      4269      4270      4268      4266      4269      4271
      4268      4266      4269      4272      4269      4272      4275      4276
      4269      4272      4275      4277      4269      4272      4275      4278
      4270      4269      4272      4273      4270      4269      4272      4274
      4270      4269      4272      4275      4271      4269      4272      4273
      4271      4269      4272      4274      4271      4269      4272      4275
      4272      4275      4278      4279      4272      4275      4278      4280
      4272      4275      4278      4281      4273      4272      4275      4276
      4273      4272      4275      4277      4273      4272      4275      4278
      4274      4272      4275      4276      4274      4272      4275      4277
      4274      4272      4275      4278      4275      4278      4281      4282
      4275      4278      4281      4283      4275      4278      4281      4284
      4276      4275      4278      4279      4276      4275      4278      4280
      4276      4275      4278      4281      4277      4275      4278      4279
      4277      4275      4278      4280      4277      4275      4278      4281
      4278      4281      4284      4285      4278      4281      4284      4286
      4278      4281      4284      4287      4279      4278      4281      4282
      4279      4278      4281      4283      4279      4278      4281      4284
      4280      4278      4281      4282      4280      4278      4281      4283
      4280      4278      4281      4284      4281      4284      4287      4288
      4281      4284      4287      4289      4281      4284      4287      4290
      4282      4281      4284      4285      4282      4281      4284      4286
      4282      4281      4284      4287      4283      4281      4284      4285
      4283      4281      4284      4286      4283      4281      4284      4287
      4284      4287      4290      4291      4284      4287      4290      4292
      4284      4287      4290      4293      4285      4284      4287      4288
      4285      4284      4287      4289      4285      4284      4287      4290
      4286      4284      4287      4288      4286      4284      4287      4289
      4286      4284      4287      4290      4287      4290      4293      4294
      4287      4290      4293      4295      4287      4290      4293      4296
      4288      4287      4290      4291      4288      4287      4290      4292
      4288      4287      4290      4293      4289      4287      4290      4291
      4289      4287      4290      4292      4289      4287      4290      4293
      4290      4293      4296      4297      4290      4293      4296      4298
      4290      4293      4296      4299      4291      4290      4293      4294
      4291      4290      4293      4295      4291      4290      4293      4296
      4292      4290      4293      4294      4292      4290      4293      4295
      4292      4290      4293      4296      4293      4296      4299      4300
      4293      4296      4299      4301      4293      4296      4299      4302
      4294      4293      4296      4297      4294      4293      4296      4298
      4294      4293      4296      4299      4295      4293      4296      4297
      4295      4293      4296      4298      4295      4293      4296      4299
      4296      4299      4302      4303      4296      4299      4302      4304
      4296      4299      4302      4305      4297      4296      4299      4300
      4297      4296      4299      4301      4297      4296      4299      4302
      4298      4296      4299      4300      4298      4296      4299      4301
      4298      4296      4299      4302      4299      4302      4305      4306
      4299      4302      4305      4307      4299      4302      4305      4308
      4300      4299      4302      4303      4300      4299      4302      4304
      4300      4299      4302      4305      4301      4299      4302      4303
      4301      4299      4302      4304      4301      4299      4302      4305
      4302      4305      4308      4309      4302      4305      4308      4310
      4302      4305      4308      4311      4303      4302      4305      4306
      4303      4302      4305      4307      4303      4302      4305      4308
      4304      4302      4305      4306      4304      4302      4305      4307
      4304      4302      4305      4308      4305      4308      4311      4312
      4305      4308      4311      4313      4305      4308      4311      4314
      4306      4305      4308      4309      4306      4305      4308      4310
      4306      4305      4308      4311      4307      4305      4308      4309
      4307      4305      4308      4310      4307      4305      4308      4311
      4308      4311      4314      4315      4308      4311      4314      4316
      4308      4311      4314      4317      4309      4308      4311      4312
      4309      4308      4311      4313      4309      4308      4311      4314
      4310      4308      4311      4312      4310      4308      4311      4313
      4310      4308      4311      4314      4311      4314      4317      4318
      4311      4314      4317      4319      4311      4314      4317      4320
      4312      4311      4314      4315      4312      4311      4314      4316
      4312      4311      4314      4317      4313      4311      4314      4315
      4313      4311      4314      4316      4313      4311      4314      4317
      4314      4317      4320      4321      4314      4317      4320      4322
      4314      4317      4320      4323      4315      4314      4317      4318
      4315      4314      4317      4319      4315      4314      4317      4320
      4316      4314      4317      4318      4316      4314      4317      4319
      4316      4314      4317      4320      4317      4320      4323      4324
      4317      4320      4323      4325      4317      4320      4323      4326
      4318      4317      4320      4321      4318      4317      4320      4322
      4318      4317      4320      4323      4319      4317      4320      4321
      4319      4317      4320      4322      4319      4317      4320      4323
      4320      4323      4326      4327      4320      4323      4326      4328
      4320      4323      4326      4329      4321      4320      4323      4324
      4321      4320      4323      4325      4321      4320      4323      4326
      4322      4320      4323      4324      4322      4320      4323      4325
      4322      4320      4323      4326      4323      4326      4329      4330
      4323      4326      4329      4331      4323      4326      4329      4332
      4324      4323      4326      4327      4324      4323      4326      4328
      4324      4323      4326      4329      4325      4323      4326      4327
      4325      4323      4326      4328      4325      4323      4326      4329
      4326      4329      4332      4333      4326      4329      4332      4334
      4326      4329      4332      4335      4327      4326      4329      4330
      4327      4326      4329      4331      4327      4326      4329      4332
      4328      4326      4329      4330      4328      4326      4329      4331
      4328      4326      4329      4332      4329      4332      4335      4336
      4329      4332      4335      4337      4329      4332      4335      4338
      4330      4329      4332      4333      4330      4329      4332      4334
      4330      4329      4332      4335      4331      4329      4332      4333
      4331      4329      4332      4334      4331      4329      4332      4335
      4332      4335      4338      4339      4332      4335      4338      4340
      4332      4335      4338      4341      4333      4332      4335      4336
      4333      4332      4335      4337      4333      4332      4335      4338
      4334      4332      4335      4336      4334      4332      4335      4337
      4334      4332      4335      4338      4335      4338      4341      4342
      4335      4338      4341      4343      4335      4338      4341      4344
      4336      4335      4338      4339      4336      4335      4338      4340
      4336      4335      4338      4341      4337      4335      4338      4339
      4337      4335      4338      4340      4337      4335      4338      4341
      4339      4338      4341      4342      4339      4338      4341      4343
      4339      4338      4341      4344      4340      4338      4341      4342
      4340      4338      4341      4343      4340      4338      4341      4344
      4345      4349      4352      4353      4345      4349      4352      4354
      4345      4349      4352      4355      4346      4345      4349      4350
      4346      4345      4349      4351      4346      4345      4349      4352
      4347      4345      4349      4350      4347      4345      4349      4351
      4347      4345      4349      4352      4348      4345      4349      4350
      4348      4345      4349      4351      4348      4345      4349      4352
      4349      4352      4355      4356      4349      4352      4355      4357
      4349      4352      4355      4358      4350      4349      4352      4353
      4350      4349      4352      4354      4350      4349      4352      4355
      4351      4349      4352      4353      4351      4349      4352      4354
      4351      4349      4352      4355      4352      4355      4358      4359
      4352      4355      4358      4360      4352      4355      4358      4361
      4353      4352      4355      4356      4353      4352      4355      4357
      4353      4352      4355      4358      4354      4352      4355      4356
      4354      4352      4355      4357      4354      4352      4355      4358
      4355      4358      4361      4362      4355      4358      4361      4363
      4355      4358      4361      4364      4356      4355      4358      4359
      4356      4355      4358      4360      4356      4355      4358      4361
      4357      4355      4358      4359      4357      4355      4358      4360
      4357      4355      4358      4361      4358      4361      4364      4365
      4358      4361      4364      4366      4358      4361      4364      4367
      4359      4358      4361      4362      4359      4358      4361      4363
      4359      4358      4361      4364      4360      4358      4361      4362
      4360      4358      4361      4363      4360      4358      4361      4364
      4361      4364      4367      4368      4361      4364      4367      4369
      4361      4364      4367      4370      4362      4361      4364      4365
      4362      4361      4364      4366      4362      4361      4364      4367
      4363      4361      4364      4365      4363      4361      4364      4366
      4363      4361      4364      4367      4364      4367      4370      4371
      4364      4367      4370      4372      4364      4367      4370      4373
      4365      4364      4367      4368      4365      4364      4367      4369
      4365      4364      4367      4370      4366      4364      4367      4368
      4366      4364      4367      4369      4366      4364      4367      4370
      4367      4370      4373      4374      4367      4370      4373      4375
      4367      4370      4373      4376      4368      4367      4370      4371
      4368      4367      4370      4372      4368      4367      4370      4373
      4369      4367      4370      4371      4369      4367      4370      4372
      4369      4367      4370      4373      4370      4373      4376      4377
      4370      4373      4376      4378      4370      4373      4376      4379
      4371      4370      4373      4374      4371      4370      4373      4375
      4371      4370      4373      4376      4372      4370      4373      4374
      4372      4370      4373      4375      4372      4370      4373      4376
      4373      4376      4379      4380      4373      4376      4379      4381
      4373      4376      4379      4382      4374      4373      4376      4377
      4374      4373      4376      4378      4374      4373      4376      4379
      4375      4373      4376      4377      4375      4373      4376      4378
      4375      4373      4376      4379      4376      4379      4382      4383
      4376      4379      4382      4384      4376      4379      4382      4385
      4377      4376      4379      4380      4377      4376      4379      4381
      4377      4376      4379      4382      4378      4376      4379      4380
      4378      4376      4379      4381      4378      4376      4379      4382
      4379      4382      4385      4386      4379      4382      4385      4387
      4379      4382      4385      4388      4380      4379      4382      4383
      4380      4379      4382      4384      4380      4379      4382      4385
      4381      4379      4382      4383      4381      4379      4382      4384
      4381      4379      4382      4385      4382      4385      4388      4389
      4382      4385      4388      4390      4382      4385      4388      4391
      4383      4382      4385      4386      4383      4382      4385      4387
      4383      4382      4385      4388      4384      4382      4385      4386
      4384      4382      4385      4387      4384      4382      4385      4388
      4385      4388      4391      4392      4385      4388      4391      4393
      4385      4388      4391      4394      4386      4385      4388      4389
      4386      4385      4388      4390      4386      4385      4388      4391
      4387      4385      4388      4389      4387      4385      4388      4390
      4387      4385      4388      4391      4388      4391      4394      4395
      4388      4391      4394      4396      4388      4391      4394      4397
      4389      4388      4391      4392      4389      4388      4391      4393
      4389      4388      4391      4394      4390      4388      4391      4392
      4390      4388      4391      4393      4390      4388      4391      4394
      4391      4394      4397      4398      4391      4394      4397      4399
      4391      4394      4397      4400      4392      4391      4394      4395
      4392      4391      4394      4396      4392      4391      4394      4397
      4393      4391      4394      4395      4393      4391      4394      4396
      4393      4391      4394      4397      4394      4397      4400      4401
      4394      4397      4400      4402      4394      4397      4400      4403
      4395      4394      4397      4398      4395      4394      4397      4399
      4395      4394      4397      4400      4396      4394      4397      4398
      4396      4394      4397      4399      4396      4394      4397      4400
      4397      4400      4403      4404      4397      4400      4403      4405
      4397      4400      4403      4406      4398      4397      4400      4401
      4398      4397      4400      4402      4398      4397      4400      4403
      4399      4397      4400      4401      4399      4397      4400      4402
      4399      4397      4400      4403      4400      4403      4406      4407
      4400      4403      4406      4408      4400      4403      4406      4409
      4401      4400      4403      4404      4401      4400      4403      4405
      4401      4400      4403      4406      4402      4400      4403      4404
      4402      4400      4403      4405      4402      4400      4403      4406
      4403      4406      4409      4410      4403      4406      4409      4411
      4403      4406      4409      4412      4404      4403      4406      4407
      4404      4403      4406      4408      4404      4403      4406      4409
      4405      4403      4406      4407      4405      4403      4406      4408
      4405      4403      4406      4409      4406      4409      4412      4413
      4406      4409      4412      4414      4406      4409      4412      4415
      4407      4406      4409      4410      4407      4406      4409      4411
      4407      4406      4409      4412      4408      4406      4409      4410
      4408      4406      4409      4411      4408      4406      4409      4412
      4409      4412      4415      4416      4409      4412      4415      4417
      4409      4412      4415      4418      4410      4409      4412      4413
      4410      4409      4412      4414      4410      4409      4412      4415
      4411      4409      4412      4413      4411      4409      4412      4414
      4411      4409      4412      4415      4412      4415      4418      4419
      4412      4415      4418      4420      4412      4415      4418      4421
      4413      4412      4415      4416      4413      4412      4415      4417
      4413      4412      4415      4418      4414      4412      4415      4416
      4414      4412      4415      4417      4414      4412      4415      4418
      4415      4418      4421      4422      4415      4418      4421      4423
      4415      4418      4421      4424      4416      4415      4418      4419
      4416      4415      4418      4420      4416      4415      4418      4421
      4417      4415      4418      4419      4417      4415      4418      4420
      4417      4415      4418      4421      4418      4421      4424      4425
      4418      4421      4424      4426      4418      4421      4424      4427
      4419      4418      4421      4422      4419      4418      4421      4423
      4419      4418      4421      4424      4420      4418      4421      4422
      4420      4418      4421      4423      4420      4418      4421      4424
      4421      4424      4427      4428      4421      4424      4427      4429
      4421      4424      4427      4430      4422      4421      4424      4425
      4422      4421      4424      4426      4422      4421      4424      4427
      4423      4421      4424      4425      4423      4421      4424      4426
      4423      4421      4424      4427      4424      4427      4430      4431
      4424      4427      4430      4432      4424      4427      4430      4433
      4425      4424      4427      4428      4425      4424      4427      4429
      4425      4424      4427      4430      4426      4424      4427      4428
      4426      4424      4427      4429      4426      4424      4427      4430
      4427      4430      4433      4434      4427      4430      4433      4435
      4427      4430      4433      4436      4428      4427      4430      4431
      4428      4427      4430      4432      4428      4427      4430      4433
      4429      4427      4430      4431      4429      4427      4430      4432
      4429      4427      4430      4433      4430      4433      4436      4437
      4430      4433      4436      4438      4430      4433      4436      4439
      4431      4430      4433      4434      4431      4430      4433      4435
      4431      4430      4433      4436      4432      4430      4433      4434
      4432      4430      4433      4435      4432      4430      4433      4436
      4433      4436      4439      4440      4433      4436      4439      4441
      4433      4436      4439      4442      4434      4433      4436      4437
      4434      4433      4436      4438      4434      4433      4436      4439
      4435      4433      4436      4437      4435      4433      4436      4438
      4435      4433      4436      4439      4436      4439      4442      4443
      4436      4439      4442      4444      4436      4439      4442      4445
      4437      4436      4439      4440      4437      4436      4439      4441
      4437      4436      4439      4442      4438      4436      4439      4440
      4438      4436      4439      4441      4438      4436      4439      4442
      4439      4442      4445      4446      4439      4442      4445      4447
      4439      4442      4445      4448      4440      4439      4442      4443
      4440      4439      4442      4444      4440      4439      4442      4445
      4441      4439      4442      4443      4441      4439      4442      4444
      4441      4439      4442      4445      4442      4445      4448      4449
      4442      4445      4448      4450      4442      4445      4448      4451
      4443      4442      4445      4446      4443      4442      4445      4447
      4443      4442      4445      4448      4444      4442      4445      4446
      4444      4442      4445      4447      4444      4442      4445      4448
      4445      4448      4451      4452      4445      4448      4451      4453
      4445      4448      4451      4454      4446      4445      4448      4449
      4446      4445      4448      4450      4446      4445      4448      4451
      4447      4445      4448      4449      4447      4445      4448      4450
      4447      4445      4448      4451      4448      4451      4454      4455
      4448      4451      4454      4456      4448      4451      4454      4457
      4449      4448      4451      4452      4449      4448      4451      4453
      4449      4448      4451      4454      4450      4448      4451      4452
      4450      4448      4451      4453      4450      4448      4451      4454
      4451      4454      4457      4458      4451      4454      4457      4459
      4451      4454      4457      4460      4452      4451      4454      4455
      4452      4451      4454      4456      4452      4451      4454      4457
      4453      4451      4454      4455      4453      4451      4454      4456
      4453      4451      4454      4457      4454      4457      4460      4461
      4454      4457      4460      4462      4454      4457      4460      4463
      4455      4454      4457      4458      4455      4454      4457      4459
      4455      4454      4457      4460      4456      4454      4457      4458
      4456      4454      4457      4459      4456      4454      4457      4460
      4457      4460      4463      4464      4457      4460      4463      4465
      4457      4460      4463      4466      4458      4457      4460      4461
      4458      4457      4460      4462      4458      4457      4460      4463
      4459      4457      4460      4461      4459      4457      4460      4462
      4459      4457      4460      4463      4460      4463      4466      4467
      4460      4463      4466      4468      4460      4463      4466      4469
      4461      4460      4463      4464      4461      4460      4463      4465
      4461      4460      4463      4466      4462      4460      4463      4464
      4462      4460      4463      4465      4462      4460      4463      4466
      4463      4466      4469      4470      4463      4466      4469      4471
      4463      4466      4469      4472      4464      4463      4466      4467
      4464      4463      4466      4468      4464      4463      4466      4469
      4465      4463      4466      4467      4465      4463      4466      4468
      4465      4463      4466      4469      4466      4469      4472      4473
      4466      4469      4472      4474      4466      4469      4472      4475
      4467      4466      4469      4470      4467      4466      4469      4471
      4467      4466      4469      4472      4468      4466      4469      4470
      4468      4466      4469      4471      4468      4466      4469      4472
      4469      4472      4475      4476      4469      4472      4475      4477
      4469      4472      4475      4478      4470      4469      4472      4473
      4470      4469      4472      4474      4470      4469      4472      4475
      4471      4469      4472      4473      4471      4469      4472      4474
      4471      4469      4472      4475      4472      4475      4478      4479
      4472      4475      4478      4480      4472      4475      4478      4481
      4473      4472      4475      4476      4473      4472      4475      4477
      4473      4472      4475      4478      4474      4472      4475      4476
      4474      4472      4475      4477      4474      4472      4475      4478
      4475      4478      4481      4482      4475      4478      4481      4483
      4475      4478      4481      4484      4476      4475      4478      4479
      4476      4475      4478      4480      4476      4475      4478      4481
      4477      4475      4478      4479      4477      4475      4478      4480
      4477      4475      4478      4481      4478      4481      4484      4485
      4478      4481      4484      4486      4478      4481      4484      4487
      4479      4478      4481      4482      4479      4478      4481      4483
      4479      4478      4481      4484      4480      4478      4481      4482
      4480      4478      4481      4483      4480      4478      4481      4484
      4481      4484      4487      4488      4481      4484      4487      4489
      4481      4484      4487      4490      4482      4481      4484      4485
      4482      4481      4484      4486      4482      4481      4484      4487
      4483      4481      4484      4485      4483      4481      4484      4486
      4483      4481      4484      4487      4484      4487      4490      4491
      4484      4487      4490      4492      4484      4487      4490      4493
      4485      4484      4487      4488      4485      4484      4487      4489
      4485      4484      4487      4490      4486      4484      4487      4488
      4486      4484      4487      4489      4486      4484      4487      4490
      4487      4490      4493      4494      4487      4490      4493      4495
      4487      4490      4493      4496      4488      4487      4490      4491
      4488      4487      4490      4492      4488      4487      4490      4493
      4489      4487      4490      4491      4489      4487      4490      4492
      4489      4487      4490      4493      4490      4493      4496      4497
      4490      4493      4496      4498      4490      4493      4496      4499
      4491      4490      4493      4494      4491      4490      4493      4495
      4491      4490      4493      4496      4492      4490      4493      4494
      4492      4490      4493      4495      4492      4490      4493      4496
      4493      4496      4499      4500      4493      4496      4499      4501
      4493      4496      4499      4502      4494      4493      4496      4497
      4494      4493      4496      4498      4494      4493      4496      4499
      4495      4493      4496      4497      4495      4493      4496      4498
      4495      4493      4496      4499      4496      4499      4502      4503
      4496      4499      4502      4504      4496      4499      4502      4505
      4497      4496      4499      4500      4497      4496      4499      4501
      4497      4496      4499      4502      4498      4496      4499      4500
      4498      4496      4499      4501      4498      4496      4499      4502
      4499      4502      4505      4506      4499      4502      4505      4507
      4499      4502      4505      4508      4500      4499      4502      4503
      4500      4499      4502      4504      4500      4499      4502      4505
      4501      4499      4502      4503      4501      4499      4502      4504
      4501      4499      4502      4505      4502      4505      4508      4509
      4502      4505      4508      4510      4502      4505      4508      4511
      4503      4502      4505      4506      4503      4502      4505      4507
      4503      4502      4505      4508      4504      4502      4505      4506
      4504      4502      4505      4507      4504      4502      4505      4508
      4505      4508      4511      4512      4505      4508      4511      4513
      4505      4508      4511      4514      4506      4505      4508      4509
      4506      4505      4508      4510      4506      4505      4508      4511
      4507      4505      4508      4509      4507      4505      4508      4510
      4507      4505      4508      4511      4508      4511      4514      4515
      4508      4511      4514      4516      4508      4511      4514      4517
      4509      4508      4511      4512      4509      4508      4511      4513
      4509      4508      4511      4514      4510      4508      4511      4512
      4510      4508      4511      4513      4510      4508      4511      4514
      4511      4514      4517      4518      4511      4514      4517      4519
      4511      4514      4517      4520      4512      4511      4514      4515
      4512      4511      4514      4516      4512      4511      4514      4517
      4513      4511      4514      4515      4513      4511      4514      4516
      4513      4511      4514      4517      4514      4517      4520      4521
      4514      4517      4520      4522      4514      4517      4520      4523
      4515      4514      4517      4518      4515      4514      4517      4519
      4515      4514      4517      4520      4516      4514      4517      4518
      4516      4514      4517      4519      4516      4514      4517      4520
      4517      4520      4523      4524      4517      4520      4523      4525
      4517      4520      4523      4526      4518      4517      4520      4521
      4518      4517      4520      4522      4518      4517      4520      4523
      4519      4517      4520      4521      4519      4517      4520      4522
      4519      4517      4520      4523      4520      4523      4526      4527
      4520      4523      4526      4528      4520      4523      4526      4529
      4521      4520      4523      4524      4521      4520      4523      4525
      4521      4520      4523      4526      4522      4520      4523      4524
      4522      4520      4523      4525      4522      4520      4523      4526
      4523      4526      4529      4530      4523      4526      4529      4531
      4523      4526      4529      4532      4524      4523      4526      4527
      4524      4523      4526      4528      4524      4523      4526      4529
      4525      4523      4526      4527      4525      4523      4526      4528
      4525      4523      4526      4529      4526      4529      4532      4533
      4526      4529      4532      4534      4526      4529      4532      4535
      4527      4526      4529      4530      4527      4526      4529      4531
      4527      4526      4529      4532      4528      4526      4529      4530
      4528      4526      4529      4531      4528      4526      4529      4532
      4529      4532      4535      4536      4529      4532      4535      4537
      4529      4532      4535      4538      4530      4529      4532      4533
      4530      4529      4532      4534      4530      4529      4532      4535
      4531      4529      4532      4533      4531      4529      4532      4534
      4531      4529      4532      4535      4532      4535      4538      4539
      4532      4535      4538      4540      4532      4535      4538      4541
      4533      4532      4535      4536      4533      4532      4535      4537
      4533      4532      4535      4538      4534      4532      4535      4536
      4534      4532      4535      4537      4534      4532      4535      4538
      4535      4538      4541      4542      4535      4538      4541      4543
      4535      4538      4541      4544      4536      4535      4538      4539
      4536      4535      4538      4540      4536      4535      4538      4541
      4537      4535      4538      4539      4537      4535      4538      4540
      4537      4535      4538      4541      4538      4541      4544      4545
      4538      4541      4544      4546      4538      4541      4544      4547
      4539      4538      4541      4542      4539      4538      4541      4543
      4539      4538      4541      4544      4540      4538      4541      4542
      4540      4538      4541      4543      4540      4538      4541      4544
      4541      4544      4547      4548      4541      4544      4547      4549
      4541      4544      4547      4550      4542      4541      4544      4545
      4542      4541      4544      4546      4542      4541      4544      4547
      4543      4541      4544      4545      4543      4541      4544      4546
      4543      4541      4544      4547      4544      4547      4550      4551
      4544      4547      4550      4552      4544      4547      4550      4553
      4545      4544      4547      4548      4545      4544      4547      4549
      4545      4544      4547      4550      4546      4544      4547      4548
      4546      4544      4547      4549      4546      4544      4547      4550
      4547      4550      4553      4554      4547      4550      4553      4555
      4547      4550      4553      4556      4548      4547      4550      4551
      4548      4547      4550      4552      4548      4547      4550      4553
      4549      4547      4550      4551      4549      4547      4550      4552
      4549      4547      4550      4553      4550      4553      4556      4557
      4550      4553      4556      4558      4550      4553      4556      4559
      4551      4550      4553      4554      4551      4550      4553      4555
      4551      4550      4553      4556      4552      4550      4553      4554
      4552      4550      4553      4555      4552      4550      4553      4556
      4553      4556      4559      4560      4553      4556      4559      4561
      4553      4556      4559      4562      4554      4553      4556      4557
      4554      4553      4556      4558      4554      4553      4556      4559
      4555      4553      4556      4557      4555      4553      4556      4558
      4555      4553      4556      4559      4556      4559      4562      4563
      4556      4559      4562      4564      4556      4559      4562      4565
      4557      4556      4559      4560      4557      4556      4559      4561
      4557      4556      4559      4562      4558      4556      4559      4560
      4558      4556      4559      4561      4558      4556      4559      4562
      4559      4562      4565      4566      4559      4562      4565      4567
      4559      4562      4565      4568      4560      4559      4562      4563
      4560      4559      4562      4564      4560      4559      4562      4565
      4561      4559      4562      4563      4561      4559      4562      4564
      4561      4559      4562      4565      4562      4565      4568      4569
      4562      4565      4568      4570      4562      4565      4568      4571
      4563      4562      4565      4566      4563      4562      4565      4567
      4563      4562      4565      4568      4564      4562      4565      4566
      4564      4562      4565      4567      4564      4562      4565      4568
      4565      4568      4571      4572      4565      4568      4571      4573
      4565      4568      4571      4574      4566      4565      4568      4569
      4566      4565      4568      4570      4566      4565      4568      4571
      4567      4565      4568      4569      4567      4565      4568      4570
      4567      4565      4568      4571      4568      4571      4574      4575
      4568      4571      4574      4576      4568      4571      4574      4577
      4569      4568      4571      4572      4569      4568      4571      4573
      4569      4568      4571      4574      4570      4568      4571      4572
      4570      4568      4571      4573      4570      4568      4571      4574
      4571      4574      4577      4578      4571      4574      4577      4579
      4571      4574      4577      4580      4572      4571      4574      4575
      4572      4571      4574      4576      4572      4571      4574      4577
      4573      4571      4574      4575      4573      4571      4574      4576
      4573      4571      4574      4577      4574      4577      4580      4581
      4574      4577      4580      4582      4574      4577      4580      4583
      4575      4574      4577      4578      4575      4574      4577      4579
      4575      4574      4577      4580      4576      4574      4577      4578
      4576      4574      4577      4579      4576      4574      4577      4580
      4577      4580      4583      4584      4577      4580      4583      4585
      4577      4580      4583      4586      4578      4577      4580      4581
      4578      4577      4580      4582      4578      4577      4580      4583
      4579      4577      4580      4581      4579      4577      4580      4582
      4579      4577      4580      4583      4580      4583      4586      4587
      4580      4583      4586      4588      4580      4583      4586      4589
      4581      4580      4583      4584      4581      4580      4583      4585
      4581      4580      4583      4586      4582      4580      4583      4584
      4582      4580      4583      4585      4582      4580      4583      4586
      4583      4586      4589      4590      4583      4586      4589      4591
      4583      4586      4589      4592      4584      4583      4586      4587
      4584      4583      4586      4588      4584      4583      4586      4589
      4585      4583      4586      4587      4585      4583      4586      4588
      4585      4583      4586      4589      4586      4589      4592      4593
      4586      4589      4592      4594      4586      4589      4592      4595
      4587      4586      4589      4590      4587      4586      4589      4591
      4587      4586      4589      4592      4588      4586      4589      4590
      4588      4586      4589      4591      4588      4586      4589      4592
      4589      4592      4595      4596      4589      4592      4595      4597
      4589      4592      4595      4598      4590      4589      4592      4593
      4590      4589      4592      4594      4590      4589      4592      4595
      4591      4589      4592      4593      4591      4589      4592      4594
      4591      4589      4592      4595      4592      4595      4598      4599
      4592      4595      4598      4600      4592      4595      4598      4601
      4593      4592      4595      4596      4593      4592      4595      4597
      4593      4592      4595      4598      4594      4592      4595      4596
      4594      4592      4595      4597      4594      4592      4595      4598
      4595      4598      4601      4602      4595      4598      4601      4603
      4595      4598      4601      4604      4596      4595      4598      4599
      4596      4595      4598      4600      4596      4595      4598      4601
      4597      4595      4598      4599      4597      4595      4598      4600
      4597      4595      4598      4601      4598      4601      4604      4605
      4598      4601      4604      4606      4598      4601      4604      4607
      4599      4598      4601      4602      4599      4598      4601      4603
      4599      4598      4601      4604      4600      4598      4601      4602
      4600      4598      4601      4603      4600      4598      4601      4604
      4601      4604      4607      4608      4601      4604      4607      4609
      4601      4604      4607      4610      4602      4601      4604      4605
      4602      4601      4604      4606      4602      4601      4604      4607
      4603      4601      4604      4605      4603      4601      4604      4606
      4603      4601      4604      4607      4604      4607      4610      4611
      4604      4607      4610      4612      4604      4607      4610      4613
      4605      4604      4607      4608      4605      4604      4607      4609
      4605      4604      4607      4610      4606      4604      4607      4608
      4606      4604      4607      4609      4606      4604      4607      4610
      4607      4610      4613      4614      4607      4610      4613      4615
      4607      4610      4613      4616      4608      4607      4610      4611
      4608      4607      4610      4612      4608      4607      4610      4613
      4609      4607      4610      4611      4609      4607      4610      4612
      4609      4607      4610      4613      4610      4613      4616      4617
      4610      4613      4616      4618      4610      4613      4616      4619
      4611      4610      4613      4614      4611      4610      4613      4615
      4611      4610      4613      4616      4612      4610      4613      4614
      4612      4610      4613      4615      4612      4610      4613      4616
      4613      4616      4619      4620      4613      4616      4619      4621
      4613      4616      4619      4622      4614      4613      4616      4617
      4614      4613      4616      4618      4614      4613      4616      4619
      4615      4613      4616      4617      4615      4613      4616      4618
      4615      4613      4616      4619      4616      4619      4622      4623
      4616      4619      4622      4624      4616      4619      4622      4625
      4617      4616      4619      4620      4617      4616      4619      4621
      4617      4616      4619      4622      4618      4616      4619      4620
      4618      4616      4619      4621      4618      4616      4619      4622
      4619      4622      4625      4626      4619      4622      4625      4627
      4619      4622      4625      4628      4620      4619      4622      4623
      4620      4619      4622      4624      4620      4619      4622      4625
      4621      4619      4622      4623      4621      4619      4622      4624
      4621      4619      4622      4625      4622      4625      4628      4629
      4622      4625      4628      4630      4622      4625      4628      4631
      4623      4622      4625      4626      4623      4622      4625      4627
      4623      4622      4625      4628      4624      4622      4625      4626
      4624      4622      4625      4627      4624      4622      4625      4628
      4625      4628      4631      4632      4625      4628      4631      4633
      4625      4628      4631      4634      4626      4625      4628      4629
      4626      4625      4628      4630      4626      4625      4628      4631
      4627      4625      4628      4629      4627      4625      4628      4630
      4627      4625      4628      4631      4628      4631      4634      4635
      4628      4631      4634      4636      4628      4631      4634      4637
      4629      4628      4631      4632      4629      4628      4631      4633
      4629      4628      4631      4634      4630      4628      4631      4632
      4630      4628      4631      4633      4630      4628      4631      4634
      4631      4634      4637      4638      4631      4634      4637      4639
      4631      4634      4637      4640      4632      4631      4634      4635
      4632      4631      4634      4636      4632      4631      4634      4637
      4633      4631      4634      4635      4633      4631      4634      4636
      4633      4631      4634      4637      4634      4637      4640      4641
      4634      4637      4640      4642      4634      4637      4640      4643
      4635      4634      4637      4638      4635      4634      4637      4639
      4635      4634      4637      4640      4636      4634      4637      4638
      4636      4634      4637      4639      4636      4634      4637      4640
      4637      4640      4643      4644      4637      4640      4643      4645
      4637      4640      4643      4646      4638      4637      4640      4641
      4638      4637      4640      4642      4638      4637      4640      4643
      4639      4637      4640      4641      4639      4637      4640      4642
      4639      4637      4640      4643      4640      4643      4646      4647
      4640      4643      4646      4648      4640      4643      4646      4649
      4641      4640      4643      4644      4641      4640      4643      4645
      4641      4640      4643      4646      4642      4640      4643      4644
      4642      4640      4643      4645      4642      4640      4643      4646
      4643      4646      4649      4650      4643      4646      4649      4651
      4643      4646      4649      4652      4644      4643      4646      4647
      4644      4643      4646      4648      4644      4643      4646      4649
      4645      4643      4646      4647      4645      4643      4646      4648
      4645      4643      4646      4649      4646      4649      4652      4653
      4646      4649      4652      4654      4646      4649      4652      4655
      4647      4646      4649      4650      4647      4646      4649      4651
      4647      4646      4649      4652      4648      4646      4649      4650
      4648      4646      4649      4651      4648      4646      4649      4652
      4649      4652      4655      4656      4649      4652      4655      4657
      4649      4652      4655      4658      4650      4649      4652      4653
      4650      4649      4652      4654      4650      4649      4652      4655
      4651      4649      4652      4653      4651      4649      4652      4654
      4651      4649      4652      4655      4652      4655      4658      4659
      4652      4655      4658      4660      4652      4655      4658      4661
      4653      4652      4655      4656      4653      4652      4655      4657
      4653      4652      4655      4658      4654      4652      4655      4656
      4654      4652      4655      4657      4654      4652      4655      4658
      4655      4658      4661      4662      4655      4658      4661      4663
      4655      4658      4661      4664      4656      4655      4658      4659
      4656      4655      4658      4660      4656      4655      4658      4661
      4657      4655      4658      4659      4657      4655      4658      4660
      4657      4655      4658      4661      4658      4661      4664      4665
      4658      4661      4664      4666      4658      4661      4664      4667
      4659      4658      4661      4662      4659      4658      4661      4663
      4659      4658      4661      4664      4660      4658      4661      4662
      4660      4658      4661      4663      4660      4658      4661      4664
      4661      4664      4667      4668      4661      4664      4667      4669
      4661      4664      4667      4670      4662      4661      4664      4665
      4662      4661      4664      4666      4662      4661      4664      4667
      4663      4661      4664      4665      4663      4661      4664      4666
      4663      4661      4664      4667      4664      4667      4670      4671
      4664      4667      4670      4672      4664      4667      4670      4673
      4665      4664      4667      4668      4665      4664      4667      4669
      4665      4664      4667      4670      4666      4664      4667      4668
      4666      4664      4667      4669      4666      4664      4667      4670
      4667      4670      4673      4674      4667      4670      4673      4675
      4667      4670      4673      4676      4668      4667      4670      4671
      4668      4667      4670      4672      4668      4667      4670      4673
      4669      4667      4670      4671      4669      4667      4670      4672
      4669      4667      4670      4673      4670      4673      4676      4677
      4670      4673      4676      4678      4670      4673      4676      4679
      4671      4670      4673      4674      4671      4670      4673      4675
      4671      4670      4673      4676      4672      4670      4673      4674
      4672      4670      4673      4675      4672      4670      4673      4676
      4673      4676      4679      4680      4673      4676      4679      4681
      4673      4676      4679      4682      4674      4673      4676      4677
      4674      4673      4676      4678      4674      4673      4676      4679
      4675      4673      4676      4677      4675      4673      4676      4678
      4675      4673      4676      4679      4676      4679      4682      4683
      4676      4679      4682      4684      4676      4679      4682      4685
      4677      4676      4679      4680      4677      4676      4679      4681
      4677      4676      4679      4682      4678      4676      4679      4680
      4678      4676      4679      4681      4678      4676      4679      4682
      4679      4682      4685      4686      4679      4682      4685      4687
      4679      4682      4685      4688      4680      4679      4682      4683
      4680      4679      4682      4684      4680      4679      4682      4685
      4681      4679      4682      4683      4681      4679      4682      4684
      4681      4679      4682      4685      4682      4685      4688      4689
      4682      4685      4688      4690      4682      4685      4688      4691
      4683      4682      4685      4686      4683      4682      4685      4687
      4683      4682      4685      4688      4684      4682      4685      4686
      4684      4682      4685      4687      4684      4682      4685      4688
      4685      4688      4691      4692      4685      4688      4691      4693
      4685      4688      4691      4694      4686      4685      4688      4689
      4686      4685      4688      4690      4686      4685      4688      4691
      4687      4685      4688      4689      4687      4685      4688      4690
      4687      4685      4688      4691      4688      4691      4694      4695
      4688      4691      4694      4696      4688      4691      4694      4697
      4689      4688      4691      4692      4689      4688      4691      4693
      4689      4688      4691      4694      4690      4688      4691      4692
      4690      4688      4691      4693      4690      4688      4691      4694
      4691      4694      4697      4698      4691      4694      4697      4699
      4691      4694      4697      4700      4692      4691      4694      4695
      4692      4691      4694      4696      4692      4691      4694      4697
      4693      4691      4694      4695      4693      4691      4694      4696
      4693      4691      4694      4697      4694      4697      4700      4701
      4694      4697      4700      4702      4694      4697      4700      4703
      4695      4694      4697      4698      4695      4694      4697      4699
      4695      4694      4697      4700      4696      4694      4697      4698
      4696      4694      4697      4699      4696      4694      4697      4700
      4697      4700      4703      4704      4697      4700      4703      4705
      4697      4700      4703      4706      4698      4697      4700      4701
      4698      4697      4700      4702      4698      4697      4700      4703
      4699      4697      4700      4701      4699      4697      4700      4702
      4699      4697      4700      4703      4701      4700      4703      4704
      4701      4700      4703      4705      4701      4700      4703      4706
      4702      4700      4703      4704      4702      4700      4703      4705
      4702      4700      4703      4706      4707      4711      4714      4715
      4707      4711      4714      4716      4707      4711      4714      4717
      4708      4707      4711      4712      4708      4707      4711      4713
      4708      4707      4711      4714      4709      4707      4711      4712
      4709      4707      4711      4713      4709      4707      4711      4714
      4710      4707      4711      4712      4710      4707      4711      4713
      4710      4707      4711      4714      4711      4714      4717      4718
      4711      4714      4717      4719      4711      4714      4717      4720
      4712      4711      4714      4715      4712      4711      4714      4716
      4712      4711      4714      4717      4713      4711      4714      4715
      4713      4711      4714      4716      4713      4711      4714      4717
      4714      4717      4720      4721      4714      4717      4720      4722
      4714      4717      4720      4723      4715      4714      4717      4718
      4715      4714      4717      4719      4715      4714      4717      4720
      4716      4714      4717      4718      4716      4714      4717      4719
      4716      4714      4717      4720      4717      4720      4723      4724
      4717      4720      4723      4725      4717      4720      4723      4726
      4718      4717      4720      4721      4718      4717      4720      4722
      4718      4717      4720      4723      4719      4717      4720      4721
      4719      4717      4720      4722      4719      4717      4720      4723
      4720      4723      4726      4727      4720      4723      4726      4728
      4720      4723      4726      4729      4721      4720      4723      4724
      4721      4720      4723      4725      4721      4720      4723      4726
      4722      4720      4723      4724      4722      4720      4723      4725
      4722      4720      4723      4726      4723      4726      4729      4730
      4723      4726      4729      4731      4723      4726      4729      4732
      4724      4723      4726      4727      4724      4723      4726      4728
      4724      4723      4726      4729      4725      4723      4726      4727
      4725      4723      4726      4728      4725      4723      4726      4729
      4726      4729      4732      4733      4726      4729      4732      4734
      4726      4729      4732      4735      4727      4726      4729      4730
      4727      4726      4729      4731      4727      4726      4729      4732
      4728      4726      4729      4730      4728      4726      4729      4731
      4728      4726      4729      4732      4729      4732      4735      4736
      4729      4732      4735      4737      4729      4732      4735      4738
      4730      4729      4732      4733      4730      4729      4732      4734
      4730      4729      4732      4735      4731      4729      4732      4733
      4731      4729      4732      4734      4731      4729      4732      4735
      4732      4735      4738      4739      4732      4735      4738      4740
      4732      4735      4738      4741      4733      4732      4735      4736
      4733      4732      4735      4737      4733      4732      4735      4738
      4734      4732      4735      4736      4734      4732      4735      4737
      4734      4732      4735      4738      4735      4738      4741      4742
      4735      4738      4741      4743      4735      4738      4741      4744
      4736      4735      4738      4739      4736      4735      4738      4740
      4736      4735      4738      4741      4737      4735      4738      4739
      4737      4735      4738      4740      4737      4735      4738      4741
      4738      4741      4744      4745      4738      4741      4744      4746
      4738      4741      4744      4747      4739      4738      4741      4742
      4739      4738      4741      4743      4739      4738      4741      4744
      4740      4738      4741      4742      4740      4738      4741      4743
      4740      4738      4741      4744      4741      4744      4747      4748
      4741      4744      4747      4749      4741      4744      4747      4750
      4742      4741      4744      4745      4742      4741      4744      4746
      4742      4741      4744      4747      4743      4741      4744      4745
      4743      4741      4744      4746      4743      4741      4744      4747
      4744      4747      4750      4751      4744      4747      4750      4752
      4744      4747      4750      4753      4745      4744      4747      4748
      4745      4744      4747      4749      4745      4744      4747      4750
      4746      4744      4747      4748      4746      4744      4747      4749
      4746      4744      4747      4750      4747      4750      4753      4754
      4747      4750      4753      4755      4747      4750      4753      4756
      4748      4747      4750      4751      4748      4747      4750      4752
      4748      4747      4750      4753      4749      4747      4750      4751
      4749      4747      4750      4752      4749      4747      4750      4753
      4750      4753      4756      4757      4750      4753      4756      4758
      4750      4753      4756      4759      4751      4750      4753      4754
      4751      4750      4753      4755      4751      4750      4753      4756
      4752      4750      4753      4754      4752      4750      4753      4755
      4752      4750      4753      4756      4753      4756      4759      4760
      4753      4756      4759      4761      4753      4756      4759      4762
      4754      4753      4756      4757      4754      4753      4756      4758
      4754      4753      4756      4759      4755      4753      4756      4757
      4755      4753      4756      4758      4755      4753      4756      4759
      4756      4759      4762      4763      4756      4759      4762      4764
      4756      4759      4762      4765      4757      4756      4759      4760
      4757      4756      4759      4761      4757      4756      4759      4762
      4758      4756      4759      4760      4758      4756      4759      4761
      4758      4756      4759      4762      4759      4762      4765      4766
      4759      4762      4765      4767      4759      4762      4765      4768
      4760      4759      4762      4763      4760      4759      4762      4764
      4760      4759      4762      4765      4761      4759      4762      4763
      4761      4759      4762      4764      4761      4759      4762      4765
      4762      4765      4768      4769      4762      4765      4768      4770
      4762      4765      4768      4771      4763      4762      4765      4766
      4763      4762      4765      4767      4763      4762      4765      4768
      4764      4762      4765      4766      4764      4762      4765      4767
      4764      4762      4765      4768      4765      4768      4771      4772
      4765      4768      4771      4773      4765      4768      4771      4774
      4766      4765      4768      4769      4766      4765      4768      4770
      4766      4765      4768      4771      4767      4765      4768      4769
      4767      4765      4768      4770      4767      4765      4768      4771
      4768      4771      4774      4775      4768      4771      4774      4776
      4768      4771      4774      4777      4769      4768      4771      4772
      4769      4768      4771      4773      4769      4768      4771      4774
      4770      4768      4771      4772      4770      4768      4771      4773
      4770      4768      4771      4774      4771      4774      4777      4778
      4771      4774      4777      4779      4771      4774      4777      4780
      4772      4771      4774      4775      4772      4771      4774      4776
      4772      4771      4774      4777      4773      4771      4774      4775
      4773      4771      4774      4776      4773      4771      4774      4777
      4774      4777      4780      4781      4774      4777      4780      4782
      4774      4777      4780      4783      4775      4774      4777      4778
      4775      4774      4777      4779      4775      4774      4777      4780
      4776      4774      4777      4778      4776      4774      4777      4779
      4776      4774      4777      4780      4777      4780      4783      4784
      4777      4780      4783      4785      4777      4780      4783      4786
      4778      4777      4780      4781      4778      4777      4780      4782
      4778      4777      4780      4783      4779      4777      4780      4781
      4779      4777      4780      4782      4779      4777      4780      4783
      4780      4783      4786      4787      4780      4783      4786      4788
      4780      4783      4786      4789      4781      4780      4783      4784
      4781      4780      4783      4785      4781      4780      4783      4786
      4782      4780      4783      4784      4782      4780      4783      4785
      4782      4780      4783      4786      4783      4786      4789      4790
      4783      4786      4789      4791      4783      4786      4789      4792
      4784      4783      4786      4787      4784      4783      4786      4788
      4784      4783      4786      4789      4785      4783      4786      4787
      4785      4783      4786      4788      4785      4783      4786      4789
      4786      4789      4792      4793      4786      4789      4792      4794
      4786      4789      4792      4795      4787      4786      4789      4790
      4787      4786      4789      4791      4787      4786      4789      4792
      4788      4786      4789      4790      4788      4786      4789      4791
      4788      4786      4789      4792      4789      4792      4795      4796
      4789      4792      4795      4797      4789      4792      4795      4798
      4790      4789      4792      4793      4790      4789      4792      4794
      4790      4789      4792      4795      4791      4789      4792      4793
      4791      4789      4792      4794      4791      4789      4792      4795
      4792      4795      4798      4799      4792      4795      4798      4800
      4792      4795      4798      4801      4793      4792      4795      4796
      4793      4792      4795      4797      4793      4792      4795      4798
      4794      4792      4795      4796      4794      4792      4795      4797
      4794      4792      4795      4798      4795      4798      4801      4802
      4795      4798      4801      4803      4795      4798      4801      4804
      4796      4795      4798      4799      4796      4795      4798      4800
      4796      4795      4798      4801      4797      4795      4798      4799
      4797      4795      4798      4800      4797      4795      4798      4801
      4798      4801      4804      4805      4798      4801      4804      4806
      4798      4801      4804      4807      4799      4798      4801      4802
      4799      4798      4801      4803      4799      4798      4801      4804
      4800      4798      4801      4802      4800      4798      4801      4803
      4800      4798      4801      4804      4801      4804      4807      4808
      4801      4804      4807      4809      4801      4804      4807      4810
      4802      4801      4804      4805      4802      4801      4804      4806
      4802      4801      4804      4807      4803      4801      4804      4805
      4803      4801      4804      4806      4803      4801      4804      4807
      4804      4807      4810      4811      4804      4807      4810      4812
      4804      4807      4810      4813      4805      4804      4807      4808
      4805      4804      4807      4809      4805      4804      4807      4810
      4806      4804      4807      4808      4806      4804      4807      4809
      4806      4804      4807      4810      4807      4810      4813      4814
      4807      4810      4813      4815      4807      4810      4813      4816
      4808      4807      4810      4811      4808      4807      4810      4812
      4808      4807      4810      4813      4809      4807      4810      4811
      4809      4807      4810      4812      4809      4807      4810      4813
      4810      4813      4816      4817      4810      4813      4816      4818
      4810      4813      4816      4819      4811      4810      4813      4814
      4811      4810      4813      4815      4811      4810      4813      4816
      4812      4810      4813      4814      4812      4810      4813      4815
      4812      4810      4813      4816      4813      4816      4819      4820
      4813      4816      4819      4821      4813      4816      4819      4822
      4814      4813      4816      4817      4814      4813      4816      4818
      4814      4813      4816      4819      4815      4813      4816      4817
      4815      4813      4816      4818      4815      4813      4816      4819
      4816      4819      4822      4823      4816      4819      4822      4824
      4816      4819      4822      4825      4817      4816      4819      4820
      4817      4816      4819      4821      4817      4816      4819      4822
      4818      4816      4819      4820      4818      4816      4819      4821
      4818      4816      4819      4822      4819      4822      4825      4826
      4819      4822      4825      4827      4819      4822      4825      4828
      4820      4819      4822      4823      4820      4819      4822      4824
      4820      4819      4822      4825      4821      4819      4822      4823
      4821      4819      4822      4824      4821      4819      4822      4825
      4822      4825      4828      4829      4822      4825      4828      4830
      4822      4825      4828      4831      4823      4822      4825      4826
      4823      4822      4825      4827      4823      4822      4825      4828
      4824      4822      4825      4826      4824      4822      4825      4827
      4824      4822      4825      4828      4825      4828      4831      4832
      4825      4828      4831      4833      4825      4828      4831      4834
      4826      4825      4828      4829      4826      4825      4828      4830
      4826      4825      4828      4831      4827      4825      4828      4829
      4827      4825      4828      4830      4827      4825      4828      4831
      4828      4831      4834      4835      4828      4831      4834      4836
      4828      4831      4834      4837      4829      4828      4831      4832
      4829      4828      4831      4833      4829      4828      4831      4834
      4830      4828      4831      4832      4830      4828      4831      4833
      4830      4828      4831      4834      4831      4834      4837      4838
      4831      4834      4837      4839      4831      4834      4837      4840
      4832      4831      4834      4835      4832      4831      4834      4836
      4832      4831      4834      4837      4833      4831      4834      4835
      4833      4831      4834      4836      4833      4831      4834      4837
      4834      4837      4840      4841      4834      4837      4840      4842
      4834      4837      4840      4843      4835      4834      4837      4838
      4835      4834      4837      4839      4835      4834      4837      4840
      4836      4834      4837      4838      4836      4834      4837      4839
      4836      4834      4837      4840      4837      4840      4843      4844
      4837      4840      4843      4845      4837      4840      4843      4846
      4838      4837      4840      4841      4838      4837      4840      4842
      4838      4837      4840      4843      4839      4837      4840      4841
      4839      4837      4840      4842      4839      4837      4840      4843
      4840      4843      4846      4847      4840      4843      4846      4848
      4840      4843      4846      4849      4841      4840      4843      4844
      4841      4840      4843      4845      4841      4840      4843      4846
      4842      4840      4843      4844      4842      4840      4843      4845
      4842      4840      4843      4846      4843      4846      4849      4850
      4843      4846      4849      4851      4843      4846      4849      4852
      4844      4843      4846      4847      4844      4843      4846      4848
      4844      4843      4846      4849      4845      4843      4846      4847
      4845      4843      4846      4848      4845      4843      4846      4849
      4846      4849      4852      4853      4846      4849      4852      4854
      4846      4849      4852      4855      4847      4846      4849      4850
      4847      4846      4849      4851      4847      4846      4849      4852
      4848      4846      4849      4850      4848      4846      4849      4851
      4848      4846      4849      4852      4849      4852      4855      4856
      4849      4852      4855      4857      4849      4852      4855      4858
      4850      4849      4852      4853      4850      4849      4852      4854
      4850      4849      4852      4855      4851      4849      4852      4853
      4851      4849      4852      4854      4851      4849      4852      4855
      4852      4855      4858      4859      4852      4855      4858      4860
      4852      4855      4858      4861      4853      4852      4855      4856
      4853      4852      4855      4857      4853      4852      4855      4858
      4854      4852      4855      4856      4854      4852      4855      4857
      4854      4852      4855      4858      4855      4858      4861      4862
      4855      4858      4861      4863      4855      4858      4861      4864
      4856      4855      4858      4859      4856      4855      4858      4860
      4856      4855      4858      4861      4857      4855      4858      4859
      4857      4855      4858      4860      4857      4855      4858      4861
      4858      4861      4864      4865      4858      4861      4864      4866
      4858      4861      4864      4867      4859      4858      4861      4862
      4859      4858      4861      4863      4859      4858      4861      4864
      4860      4858      4861      4862      4860      4858      4861      4863
      4860      4858      4861      4864      4861      4864      4867      4868
      4861      4864      4867      4869      4861      4864      4867      4870
      4862      4861      4864      4865      4862      4861      4864      4866
      4862      4861      4864      4867      4863      4861      4864      4865
      4863      4861      4864      4866      4863      4861      4864      4867
      4864      4867      4870      4871      4864      4867      4870      4872
      4864      4867      4870      4873      4865      4864      4867      4868
      4865      4864      4867      4869      4865      4864      4867      4870
      4866      4864      4867      4868      4866      4864      4867      4869
      4866      4864      4867      4870      4867      4870      4873      4874
      4867      4870      4873      4875      4867      4870      4873      4876
      4868      4867      4870      4871      4868      4867      4870      4872
      4868      4867      4870      4873      4869      4867      4870      4871
      4869      4867      4870      4872      4869      4867      4870      4873
      4870      4873      4876      4877      4870      4873      4876      4878
      4870      4873      4876      4879      4871      4870      4873      4874
      4871      4870      4873      4875      4871      4870      4873      4876
      4872      4870      4873      4874      4872      4870      4873      4875
      4872      4870      4873      4876      4873      4876      4879      4880
      4873      4876      4879      4881      4873      4876      4879      4882
      4874      4873      4876      4877      4874      4873      4876      4878
      4874      4873      4876      4879      4875      4873      4876      4877
      4875      4873      4876      4878      4875      4873      4876      4879
      4876      4879      4882      4883      4876      4879      4882      4884
      4876      4879      4882      4885      4877      4876      4879      4880
      4877      4876      4879      4881      4877      4876      4879      4882
      4878      4876      4879      4880      4878      4876      4879      4881
      4878      4876      4879      4882      4879      4882      4885      4886
      4879      4882      4885      4887      4879      4882      4885      4888
      4880      4879      4882      4883      4880      4879      4882      4884
      4880      4879      4882      4885      4881      4879      4882      4883
      4881      4879      4882      4884      4881      4879      4882      4885
      4882      4885      4888      4889      4882      4885      4888      4890
      4882      4885      4888      4891      4883      4882      4885      4886
      4883      4882      4885      4887      4883      4882      4885      4888
      4884      4882      4885      4886      4884      4882      4885      4887
      4884      4882      4885      4888      4885      4888      4891      4892
      4885      4888      4891      4893      4885      4888      4891      4894
      4886      4885      4888      4889      4886      4885      4888      4890
      4886      4885      4888      4891      4887      4885      4888      4889
      4887      4885      4888      4890      4887      4885      4888      4891
      4888      4891      4894      4895      4888      4891      4894      4896
      4888      4891      4894      4897      4889      4888      4891      4892
      4889      4888      4891      4893      4889      4888      4891      4894
      4890      4888      4891      4892      4890      4888      4891      4893
      4890      4888      4891      4894      4891      4894      4897      4898
      4891      4894      4897      4899      4891      4894      4897      4900
      4892      4891      4894      4895      4892      4891      4894      4896
      4892      4891      4894      4897      4893      4891      4894      4895
      4893      4891      4894      4896      4893      4891      4894      4897
      4894      4897      4900      4901      4894      4897      4900      4902
      4894      4897      4900      4903      4895      4894      4897      4898
      4895      4894      4897      4899      4895      4894      4897      4900
      4896      4894      4897      4898      4896      4894      4897      4899
      4896      4894      4897      4900      4897      4900      4903      4904
      4897      4900      4903      4905      4897      4900      4903      4906
      4898      4897      4900      4901      4898      4897      4900      4902
      4898      4897      4900      4903      4899      4897      4900      4901
      4899      4897      4900      4902      4899      4897      4900      4903
      4900      4903      4906      4907      4900      4903      4906      4908
      4900      4903      4906      4909      4901      4900      4903      4904
      4901      4900      4903      4905      4901      4900      4903      4906
      4902      4900      4903      4904      4902      4900      4903      4905
      4902      4900      4903      4906      4903      4906      4909      4910
      4903      4906      4909      4911      4903      4906      4909      4912
      4904      4903      4906      4907      4904      4903      4906      4908
      4904      4903      4906      4909      4905      4903      4906      4907
      4905      4903      4906      4908      4905      4903      4906      4909
      4906      4909      4912      4913      4906      4909      4912      4914
      4906      4909      4912      4915      4907      4906      4909      4910
      4907      4906      4909      4911      4907      4906      4909      4912
      4908      4906      4909      4910      4908      4906      4909      4911
      4908      4906      4909      4912      4909      4912      4915      4916
      4909      4912      4915      4917      4909      4912      4915      4918
      4910      4909      4912      4913      4910      4909      4912      4914
      4910      4909      4912      4915      4911      4909      4912      4913
      4911      4909      4912      4914      4911      4909      4912      4915
      4912      4915      4918      4919      4912      4915      4918      4920
      4912      4915      4918      4921      4913      4912      4915      4916
      4913      4912      4915      4917      4913      4912      4915      4918
      4914      4912      4915      4916      4914      4912      4915      4917
      4914      4912      4915      4918      4915      4918      4921      4922
      4915      4918      4921      4923      4915      4918      4921      4924
      4916      4915      4918      4919      4916      4915      4918      4920
      4916      4915      4918      4921      4917      4915      4918      4919
      4917      4915      4918      4920      4917      4915      4918      4921
      4918      4921      4924      4925      4918      4921      4924      4926
      4918      4921      4924      4927      4919      4918      4921      4922
      4919      4918      4921      4923      4919      4918      4921      4924
      4920      4918      4921      4922      4920      4918      4921      4923
      4920      4918      4921      4924      4921      4924      4927      4928
      4921      4924      4927      4929      4921      4924      4927      4930
      4922      4921      4924      4925      4922      4921      4924      4926
      4922      4921      4924      4927      4923      4921      4924      4925
      4923      4921      4924      4926      4923      4921      4924      4927
      4924      4927      4930      4931      4924      4927      4930      4932
      4924      4927      4930      4933      4925      4924      4927      4928
      4925      4924      4927      4929      4925      4924      4927      4930
      4926      4924      4927      4928      4926      4924      4927      4929
      4926      4924      4927      4930      4927      4930      4933      4934
      4927      4930      4933      4935      4927      4930      4933      4936
      4928      4927      4930      4931      4928      4927      4930      4932
      4928      4927      4930      4933      4929      4927      4930      4931
      4929      4927      4930      4932      4929      4927      4930      4933
      4930      4933      4936      4937      4930      4933      4936      4938
      4930      4933      4936      4939      4931      4930      4933      4934
      4931      4930      4933      4935      4931      4930      4933      4936
      4932      4930      4933      4934      4932      4930      4933      4935
      4932      4930      4933      4936      4933      4936      4939      4940
      4933      4936      4939      4941      4933      4936      4939      4942
      4934      4933      4936      4937      4934      4933      4936      4938
      4934      4933      4936      4939      4935      4933      4936      4937
      4935      4933      4936      4938      4935      4933      4936      4939
      4936      4939      4942      4943      4936      4939      4942      4944
      4936      4939      4942      4945      4937      4936      4939      4940
      4937      4936      4939      4941      4937      4936      4939      4942
      4938      4936      4939      4940      4938      4936      4939      4941
      4938      4936      4939      4942      4939      4942      4945      4946
      4939      4942      4945      4947      4939      4942      4945      4948
      4940      4939      4942      4943      4940      4939      4942      4944
      4940      4939      4942      4945      4941      4939      4942      4943
      4941      4939      4942      4944      4941      4939      4942      4945
      4942      4945      4948      4949      4942      4945      4948      4950
      4942      4945      4948      4951      4943      4942      4945      4946
      4943      4942      4945      4947      4943      4942      4945      4948
      4944      4942      4945      4946      4944      4942      4945      4947
      4944      4942      4945      4948      4945      4948      4951      4952
      4945      4948      4951      4953      4945      4948      4951      4954
      4946      4945      4948      4949      4946      4945      4948      4950
      4946      4945      4948      4951      4947      4945      4948      4949
      4947      4945      4948      4950      4947      4945      4948      4951
      4948      4951      4954      4955      4948      4951      4954      4956
      4948      4951      4954      4957      4949      4948      4951      4952
      4949      4948      4951      4953      4949      4948      4951      4954
      4950      4948      4951      4952      4950      4948      4951      4953
      4950      4948      4951      4954      4951      4954      4957      4958
      4951      4954      4957      4959      4951      4954      4957      4960
      4952      4951      4954      4955      4952      4951      4954      4956
      4952      4951      4954      4957      4953      4951      4954      4955
      4953      4951      4954      4956      4953      4951      4954      4957
      4954      4957      4960      4961      4954      4957      4960      4962
      4954      4957      4960      4963      4955      4954      4957      4958
      4955      4954      4957      4959      4955      4954      4957      4960
      4956      4954      4957      4958      4956      4954      4957      4959
      4956      4954      4957      4960      4957      4960      4963      4964
      4957      4960      4963      4965      4957      4960      4963      4966
      4958      4957      4960      4961      4958      4957      4960      4962
      4958      4957      4960      4963      4959      4957      4960      4961
      4959      4957      4960      4962      4959      4957      4960      4963
      4960      4963      4966      4967      4960      4963      4966      4968
      4960      4963      4966      4969      4961      4960      4963      4964
      4961      4960      4963      4965      4961      4960      4963      4966
      4962      4960      4963      4964      4962      4960      4963      4965
      4962      4960      4963      4966      4963      4966      4969      4970
      4963      4966      4969      4971      4963      4966      4969      4972
      4964      4963      4966      4967      4964      4963      4966      4968
      4964      4963      4966      4969      4965      4963      4966      4967
      4965      4963      4966      4968      4965      4963      4966      4969
      4966      4969      4972      4973      4966      4969      4972      4974
      4966      4969      4972      4975      4967      4966      4969      4970
      4967      4966      4969      4971      4967      4966      4969      4972
      4968      4966      4969      4970      4968      4966      4969      4971
      4968      4966      4969      4972      4969      4972      4975      4976
      4969      4972      4975      4977      4969      4972      4975      4978
      4970      4969      4972      4973      4970      4969      4972      4974
      4970      4969      4972      4975      4971      4969      4972      4973
      4971      4969      4972      4974      4971      4969      4972      4975
      4972      4975      4978      4979      4972      4975      4978      4980
      4972      4975      4978      4981      4973      4972      4975      4976
      4973      4972      4975      4977      4973      4972      4975      4978
      4974      4972      4975      4976      4974      4972      4975      4977
      4974      4972      4975      4978      4975      4978      4981      4982
      4975      4978      4981      4983      4975      4978      4981      4984
      4976      4975      4978      4979      4976      4975      4978      4980
      4976      4975      4978      4981      4977      4975      4978      4979
      4977      4975      4978      4980      4977      4975      4978      4981
      4978      4981      4984      4985      4978      4981      4984      4986
      4978      4981      4984      4987      4979      4978      4981      4982
      4979      4978      4981      4983      4979      4978      4981      4984
      4980      4978      4981      4982      4980      4978      4981      4983
      4980      4978      4981      4984      4981      4984      4987      4988
      4981      4984      4987      4989      4981      4984      4987      4990
      4982      4981      4984      4985      4982      4981      4984      4986
      4982      4981      4984      4987      4983      4981      4984      4985
      4983      4981      4984      4986      4983      4981      4984      4987
      4984      4987      4990      4991      4984      4987      4990      4992
      4984      4987      4990      4993      4985      4984      4987      4988
      4985      4984      4987      4989      4985      4984      4987      4990
      4986      4984      4987      4988      4986      4984      4987      4989
      4986      4984      4987      4990      4987      4990      4993      4994
      4987      4990      4993      4995      4987      4990      4993      4996
      4988      4987      4990      4991      4988      4987      4990      4992
      4988      4987      4990      4993      4989      4987      4990      4991
      4989      4987      4990      4992      4989      4987      4990      4993
      4990      4993      4996      4997      4990      4993      4996      4998
      4990      4993      4996      4999      4991      4990      4993      4994
      4991      4990      4993      4995      4991      4990      4993      4996
      4992      4990      4993      4994      4992      4990      4993      4995
      4992      4990      4993      4996      4993      4996      4999      5000
      4993      4996      4999      5001      4993      4996      4999      5002
      4994      4993      4996      4997      4994      4993      4996      4998
      4994      4993      4996      4999      4995      4993      4996      4997
      4995      4993      4996      4998      4995      4993      4996      4999
      4996      4999      5002      5003      4996      4999      5002      5004
      4996      4999      5002      5005      4997      4996      4999      5000
      4997      4996      4999      5001      4997      4996      4999      5002
      4998      4996      4999      5000      4998      4996      4999      5001
      4998      4996      4999      5002      4999      5002      5005      5006
      4999      5002      5005      5007      4999      5002      5005      5008
      5000      4999      5002      5003      5000      4999      5002      5004
      5000      4999      5002      5005      5001      4999      5002      5003
      5001      4999      5002      5004      5001      4999      5002      5005
      5002      5005      5008      5009      5002      5005      5008      5010
      5002      5005      5008      5011      5003      5002      5005      5006
      5003      5002      5005      5007      5003      5002      5005      5008
      5004      5002      5005      5006      5004      5002      5005      5007
      5004      5002      5005      5008      5005      5008      5011      5012
      5005      5008      5011      5013      5005      5008      5011      5014
      5006      5005      5008      5009      5006      5005      5008      5010
      5006      5005      5008      5011      5007      5005      5008      5009
      5007      5005      5008      5010      5007      5005      5008      5011
      5008      5011      5014      5015      5008      5011      5014      5016
      5008      5011      5014      5017      5009      5008      5011      5012
      5009      5008      5011      5013      5009      5008      5011      5014
      5010      5008      5011      5012      5010      5008      5011      5013
      5010      5008      5011      5014      5011      5014      5017      5018
      5011      5014      5017      5019      5011      5014      5017      5020
      5012      5011      5014      5015      5012      5011      5014      5016
      5012      5011      5014      5017      5013      5011      5014      5015
      5013      5011      5014      5016      5013      5011      5014      5017
      5014      5017      5020      5021      5014      5017      5020      5022
      5014      5017      5020      5023      5015      5014      5017      5018
      5015      5014      5017      5019      5015      5014      5017      5020
      5016      5014      5017      5018      5016      5014      5017      5019
      5016      5014      5017      5020      5017      5020      5023      5024
      5017      5020      5023      5025      5017      5020      5023      5026
      5018      5017      5020      5021      5018      5017      5020      5022
      5018      5017      5020      5023      5019      5017      5020      5021
      5019      5017      5020      5022      5019      5017      5020      5023
      5020      5023      5026      5027      5020      5023      5026      5028
      5020      5023      5026      5029      5021      5020      5023      5024
      5021      5020      5023      5025      5021      5020      5023      5026
      5022      5020      5023      5024      5022      5020      5023      5025
      5022      5020      5023      5026      5023      5026      5029      5030
      5023      5026      5029      5031      5023      5026      5029      5032
      5024      5023      5026      5027      5024      5023      5026      5028
      5024      5023      5026      5029      5025      5023      5026      5027
      5025      5023      5026      5028      5025      5023      5026      5029
      5026      5029      5032      5033      5026      5029      5032      5034
      5026      5029      5032      5035      5027      5026      5029      5030
      5027      5026      5029      5031      5027      5026      5029      5032
      5028      5026      5029      5030      5028      5026      5029      5031
      5028      5026      5029      5032      5029      5032      5035      5036
      5029      5032      5035      5037      5029      5032      5035      5038
      5030      5029      5032      5033      5030      5029      5032      5034
      5030      5029      5032      5035      5031      5029      5032      5033
      5031      5029      5032      5034      5031      5029      5032      5035
      5032      5035      5038      5039      5032      5035      5038      5040
      5032      5035      5038      5041      5033      5032      5035      5036
      5033      5032      5035      5037      5033      5032      5035      5038
      5034      5032      5035      5036      5034      5032      5035      5037
      5034      5032      5035      5038      5035      5038      5041      5042
      5035      5038      5041      5043      5035      5038      5041      5044
      5036      5035      5038      5039      5036      5035      5038      5040
      5036      5035      5038      5041      5037      5035      5038      5039
      5037      5035      5038      5040      5037      5035      5038      5041
      5038      5041      5044      5045      5038      5041      5044      5046
      5038      5041      5044      5047      5039      5038      5041      5042
      5039      5038      5041      5043      5039      5038      5041      5044
      5040      5038      5041      5042      5040      5038      5041      5043
      5040      5038      5041      5044      5041      5044      5047      5048
      5041      5044      5047      5049      5041      5044      5047      5050
      5042      5041      5044      5045      5042      5041      5044      5046
      5042      5041      5044      5047      5043      5041      5044      5045
      5043      5041      5044      5046      5043      5041      5044      5047
      5044      5047      5050      5051      5044      5047      5050      5052
      5044      5047      5050      5053      5045      5044      5047      5048
      5045      5044      5047      5049      5045      5044      5047      5050
      5046      5044      5047      5048      5046      5044      5047      5049
      5046      5044      5047      5050      5047      5050      5053      5054
      5047      5050      5053      5055      5047      5050      5053      5056
      5048      5047      5050      5051      5048      5047      5050      5052
      5048      5047      5050      5053      5049      5047      5050      5051
      5049      5047      5050      5052      5049      5047      5050      5053
      5050      5053      5056      5057      5050      5053      5056      5058
      5050      5053      5056      5059      5051      5050      5053      5054
      5051      5050      5053      5055      5051      5050      5053      5056
      5052      5050      5053      5054      5052      5050      5053      5055
      5052      5050      5053      5056      5053      5056      5059      5060
      5053      5056      5059      5061      5053      5056      5059      5062
      5054      5053      5056      5057      5054      5053      5056      5058
      5054      5053      5056      5059      5055      5053      5056      5057
      5055      5053      5056      5058      5055      5053      5056      5059
      5056      5059      5062      5063      5056      5059      5062      5064
      5056      5059      5062      5065      5057      5056      5059      5060
      5057      5056      5059      5061      5057      5056      5059      5062
      5058      5056      5059      5060      5058      5056      5059      5061
      5058      5056      5059      5062      5059      5062      5065      5066
      5059      5062      5065      5067      5059      5062      5065      5068
      5060      5059      5062      5063      5060      5059      5062      5064
      5060      5059      5062      5065      5061      5059      5062      5063
      5061      5059      5062      5064      5061      5059      5062      5065
      5063      5062      5065      5066      5063      5062      5065      5067
      5063      5062      5065      5068      5064      5062      5065      5066
      5064      5062      5065      5067      5064      5062      5065      5068
      5069      5073      5076      5077      5069      5073      5076      5078
      5069      5073      5076      5079      5070      5069      5073      5074
      5070      5069      5073      5075      5070      5069      5073      5076
      5071      5069      5073      5074      5071      5069      5073      5075
      5071      5069      5073      5076      5072      5069      5073      5074
      5072      5069      5073      5075      5072      5069      5073      5076
      5073      5076      5079      5080      5073      5076      5079      5081
      5073      5076      5079      5082      5074      5073      5076      5077
      5074      5073      5076      5078      5074      5073      5076      5079
      5075      5073      5076      5077      5075      5073      5076      5078
      5075      5073      5076      5079      5076      5079      5082      5083
      5076      5079      5082      5084      5076      5079      5082      5085
      5077      5076      5079      5080      5077      5076      5079      5081
      5077      5076      5079      5082      5078      5076      5079      5080
      5078      5076      5079      5081      5078      5076      5079      5082
      5079      5082      5085      5086      5079      5082      5085      5087
      5079      5082      5085      5088      5080      5079      5082      5083
      5080      5079      5082      5084      5080      5079      5082      5085
      5081      5079      5082      5083      5081      5079      5082      5084
      5081      5079      5082      5085      5082      5085      5088      5089
      5082      5085      5088      5090      5082      5085      5088      5091
      5083      5082      5085      5086      5083      5082      5085      5087
      5083      5082      5085      5088      5084      5082      5085      5086
      5084      5082      5085      5087      5084      5082      5085      5088
      5085      5088      5091      5092      5085      5088      5091      5093
      5085      5088      5091      5094      5086      5085      5088      5089
      5086      5085      5088      5090      5086      5085      5088      5091
      5087      5085      5088      5089      5087      5085      5088      5090
      5087      5085      5088      5091      5088      5091      5094      5095
      5088      5091      5094      5096      5088      5091      5094      5097
      5089      5088      5091      5092      5089      5088      5091      5093
      5089      5088      5091      5094      5090      5088      5091      5092
      5090      5088      5091      5093      5090      5088      5091      5094
      5091      5094      5097      5098      5091      5094      5097      5099
      5091      5094      5097      5100      5092      5091      5094      5095
      5092      5091      5094      5096      5092      5091      5094      5097
      5093      5091      5094      5095      5093      5091      5094      5096
      5093      5091      5094      5097      5094      5097      5100      5101
      5094      5097      5100      5102      5094      5097      5100      5103
      5095      5094      5097      5098      5095      5094      5097      5099
      5095      5094      5097      5100      5096      5094      5097      5098
      5096      5094      5097      5099      5096      5094      5097      5100
      5097      5100      5103      5104      5097      5100      5103      5105
      5097      5100      5103      5106      5098      5097      5100      5101
      5098      5097      5100      5102      5098      5097      5100      5103
      5099      5097      5100      5101      5099      5097      5100      5102
      5099      5097      5100      5103      5100      5103      5106      5107
      5100      5103      5106      5108      5100      5103      5106      5109
      5101      5100      5103      5104      5101      5100      5103      5105
      5101      5100      5103      5106      5102      5100      5103      5104
      5102      5100      5103      5105      5102      5100      5103      5106
      5103      5106      5109      5110      5103      5106      5109      5111
      5103      5106      5109      5112      5104      5103      5106      5107
      5104      5103      5106      5108      5104      5103      5106      5109
      5105      5103      5106      5107      5105      5103      5106      5108
      5105      5103      5106      5109      5106      5109      5112      5113
      5106      5109      5112      5114      5106      5109      5112      5115
      5107      5106      5109      5110      5107      5106      5109      5111
      5107      5106      5109      5112      5108      5106      5109      5110
      5108      5106      5109      5111      5108      5106      5109      5112
      5109      5112      5115      5116      5109      5112      5115      5117
      5109      5112      5115      5118      5110      5109      5112      5113
      5110      5109      5112      5114      5110      5109      5112      5115
      5111      5109      5112      5113      5111      5109      5112      5114
      5111      5109      5112      5115      5112      5115      5118      5119
      5112      5115      5118      5120      5112      5115      5118      5121
      5113      5112      5115      5116      5113      5112      5115      5117
      5113      5112      5115      5118      5114      5112      5115      5116
      5114      5112      5115      5117      5114      5112      5115      5118
      5115      5118      5121      5122      5115      5118      5121      5123
      5115      5118      5121      5124      5116      5115      5118      5119
      5116      5115      5118      5120      5116      5115      5118      5121
      5117      5115      5118      5119      5117      5115      5118      5120
      5117      5115      5118      5121      5118      5121      5124      5125
      5118      5121      5124      5126      5118      5121      5124      5127
      5119      5118      5121      5122      5119      5118      5121      5123
      5119      5118      5121      5124      5120      5118      5121      5122
      5120      5118      5121      5123      5120      5118      5121      5124
      5121      5124      5127      5128      5121      5124      5127      5129
      5121      5124      5127      5130      5122      5121      5124      5125
      5122      5121      5124      5126      5122      5121      5124      5127
      5123      5121      5124      5125      5123      5121      5124      5126
      5123      5121      5124      5127      5124      5127      5130      5131
      5124      5127      5130      5132      5124      5127      5130      5133
      5125      5124      5127      5128      5125      5124      5127      5129
      5125      5124      5127      5130      5126      5124      5127      5128
      5126      5124      5127      5129      5126      5124      5127      5130
      5127      5130      5133      5134      5127      5130      5133      5135
      5127      5130      5133      5136      5128      5127      5130      5131
      5128      5127      5130      5132      5128      5127      5130      5133
      5129      5127      5130      5131      5129      5127      5130      5132
      5129      5127      5130      5133      5130      5133      5136      5137
      5130      5133      5136      5138      5130      5133      5136      5139
      5131      5130      5133      5134      5131      5130      5133      5135
      5131      5130      5133      5136      5132      5130      5133      5134
      5132      5130      5133      5135      5132      5130      5133      5136
      5133      5136      5139      5140      5133      5136      5139      5141
      5133      5136      5139      5142      5134      5133      5136      5137
      5134      5133      5136      5138      5134      5133      5136      5139
      5135      5133      5136      5137      5135      5133      5136      5138
      5135      5133      5136      5139      5136      5139      5142      5143
      5136      5139      5142      5144      5136      5139      5142      5145
      5137      5136      5139      5140      5137      5136      5139      5141
      5137      5136      5139      5142      5138      5136      5139      5140
      5138      5136      5139      5141      5138      5136      5139      5142
      5139      5142      5145      5146      5139      5142      5145      5147
      5139      5142      5145      5148      5140      5139      5142      5143
      5140      5139      5142      5144      5140      5139      5142      5145
      5141      5139      5142      5143      5141      5139      5142      5144
      5141      5139      5142      5145      5142      5145      5148      5149
      5142      5145      5148      5150      5142      5145      5148      5151
      5143      5142      5145      5146      5143      5142      5145      5147
      5143      5142      5145      5148      5144      5142      5145      5146
      5144      5142      5145      5147      5144      5142      5145      5148
      5145      5148      5151      5152      5145      5148      5151      5153
      5145      5148      5151      5154      5146      5145      5148      5149
      5146      5145      5148      5150      5146      5145      5148      5151
      5147      5145      5148      5149      5147      5145      5148      5150
      5147      5145      5148      5151      5148      5151      5154      5155
      5148      5151      5154      5156      5148      5151      5154      5157
      5149      5148      5151      5152      5149      5148      5151      5153
      5149      5148      5151      5154      5150      5148      5151      5152
      5150      5148      5151      5153      5150      5148      5151      5154
      5151      5154      5157      5158      5151      5154      5157      5159
      5151      5154      5157      5160      5152      5151      5154      5155
      5152      5151      5154      5156      5152      5151      5154      5157
      5153      5151      5154      5155      5153      5151      5154      5156
      5153      5151      5154      5157      5154      5157      5160      5161
      5154      5157      5160      5162      5154      5157      5160      5163
      5155      5154      5157      5158      5155      5154      5157      5159
      5155      5154      5157      5160      5156      5154      5157      5158
      5156      5154      5157      5159      5156      5154      5157      5160
      5157      5160      5163      5164      5157      5160      5163      5165
      5157      5160      5163      5166      5158      5157      5160      5161
      5158      5157      5160      5162      5158      5157      5160      5163
      5159      5157      5160      5161      5159      5157      5160      5162
      5159      5157      5160      5163      5160      5163      5166      5167
      5160      5163      5166      5168      5160      5163      5166      5169
      5161      5160      5163      5164      5161      5160      5163      5165
      5161      5160      5163      5166      5162      5160      5163      5164
      5162      5160      5163      5165      5162      5160      5163      5166
      5163      5166      5169      5170      5163      5166      5169      5171
      5163      5166      5169      5172      5164      5163      5166      5167
      5164      5163      5166      5168      5164      5163      5166      5169
      5165      5163      5166      5167      5165      5163      5166      5168
      5165      5163      5166      5169      5166      5169      5172      5173
      5166      5169      5172      5174      5166      5169      5172      5175
      5167      5166      5169      5170      5167      5166      5169      5171
      5167      5166      5169      5172      5168      5166      5169      5170
      5168      5166      5169      5171      5168      5166      5169      5172
      5169      5172      5175      5176      5169      5172      5175      5177
      5169      5172      5175      5178      5170      5169      5172      5173
      5170      5169      5172      5174      5170      5169      5172      5175
      5171      5169      5172      5173      5171      5169      5172      5174
      5171      5169      5172      5175      5172      5175      5178      5179
      5172      5175      5178      5180      5172      5175      5178      5181
      5173      5172      5175      5176      5173      5172      5175      5177
      5173      5172      5175      5178      5174      5172      5175      5176
      5174      5172      5175      5177      5174      5172      5175      5178
      5175      5178      5181      5182      5175      5178      5181      5183
      5175      5178      5181      5184      5176      5175      5178      5179
      5176      5175      5178      5180      5176      5175      5178      5181
      5177      5175      5178      5179      5177      5175      5178      5180
      5177      5175      5178      5181      5178      5181      5184      5185
      5178      5181      5184      5186      5178      5181      5184      5187
      5179      5178      5181      5182      5179      5178      5181      5183
      5179      5178      5181      5184      5180      5178      5181      5182
      5180      5178      5181      5183      5180      5178      5181      5184
      5181      5184      5187      5188      5181      5184      5187      5189
      5181      5184      5187      5190      5182      5181      5184      5185
      5182      5181      5184      5186      5182      5181      5184      5187
      5183      5181      5184      5185      5183      5181      5184      5186
      5183      5181      5184      5187      5184      5187      5190      5191
      5184      5187      5190      5192      5184      5187      5190      5193
      5185      5184      5187      5188      5185      5184      5187      5189
      5185      5184      5187      5190      5186      5184      5187      5188
      5186      5184      5187      5189      5186      5184      5187      5190
      5187      5190      5193      5194      5187      5190      5193      5195
      5187      5190      5193      5196      5188      5187      5190      5191
      5188      5187      5190      5192      5188      5187      5190      5193
      5189      5187      5190      5191      5189      5187      5190      5192
      5189      5187      5190      5193      5190      5193      5196      5197
      5190      5193      5196      5198      5190      5193      5196      5199
      5191      5190      5193      5194      5191      5190      5193      5195
      5191      5190      5193      5196      5192      5190      5193      5194
      5192      5190      5193      5195      5192      5190      5193      5196
      5193      5196      5199      5200      5193      5196      5199      5201
      5193      5196      5199      5202      5194      5193      5196      5197
      5194      5193      5196      5198      5194      5193      5196      5199
      5195      5193      5196      5197      5195      5193      5196      5198
      5195      5193      5196      5199      5196      5199      5202      5203
      5196      5199      5202      5204      5196      5199      5202      5205
      5197      5196      5199      5200      5197      5196      5199      5201
      5197      5196      5199      5202      5198      5196      5199      5200
      5198      5196      5199      5201      5198      5196      5199      5202
      5199      5202      5205      5206      5199      5202      5205      5207
      5199      5202      5205      5208      5200      5199      5202      5203
      5200      5199      5202      5204      5200      5199      5202      5205
      5201      5199      5202      5203      5201      5199      5202      5204
      5201      5199      5202      5205      5202      5205      5208      5209
      5202      5205      5208      5210      5202      5205      5208      5211
      5203      5202      5205      5206      5203      5202      5205      5207
      5203      5202      5205      5208      5204      5202      5205      5206
      5204      5202      5205      5207      5204      5202      5205      5208
      5205      5208      5211      5212      5205      5208      5211      5213
      5205      5208      5211      5214      5206      5205      5208      5209
      5206      5205      5208      5210      5206      5205      5208      5211
      5207      5205      5208      5209      5207      5205      5208      5210
      5207      5205      5208      5211      5208      5211      5214      5215
      5208      5211      5214      5216      5208      5211      5214      5217
      5209      5208      5211      5212      5209      5208      5211      5213
      5209      5208      5211      5214      5210      5208      5211      5212
      5210      5208      5211      5213      5210      5208      5211      5214
      5211      5214      5217      5218      5211      5214      5217      5219
      5211      5214      5217      5220      5212      5211      5214      5215
      5212      5211      5214      5216      5212      5211      5214      5217
      5213      5211      5214      5215      5213      5211      5214      5216
      5213      5211      5214      5217      5214      5217      5220      5221
      5214      5217      5220      5222      5214      5217      5220      5223
      5215      5214      5217      5218      5215      5214      5217      5219
      5215      5214      5217      5220      5216      5214      5217      5218
      5216      5214      5217      5219      5216      5214      5217      5220
      5217      5220      5223      5224      5217      5220      5223      5225
      5217      5220      5223      5226      5218      5217      5220      5221
      5218      5217      5220      5222      5218      5217      5220      5223
      5219      5217      5220      5221      5219      5217      5220      5222
      5219      5217      5220      5223      5220      5223      5226      5227
      5220      5223      5226      5228      5220      5223      5226      5229
      5221      5220      5223      5224      5221      5220      5223      5225
      5221      5220      5223      5226      5222      5220      5223      5224
      5222      5220      5223      5225      5222      5220      5223      5226
      5223      5226      5229      5230      5223      5226      5229      5231
      5223      5226      5229      5232      5224      5223      5226      5227
      5224      5223      5226      5228      5224      5223      5226      5229
      5225      5223      5226      5227      5225      5223      5226      5228
      5225      5223      5226      5229      5226      5229      5232      5233
      5226      5229      5232      5234      5226      5229      5232      5235
      5227      5226      5229      5230      5227      5226      5229      5231
      5227      5226      5229      5232      5228      5226      5229      5230
      5228      5226      5229      5231      5228      5226      5229      5232
      5229      5232      5235      5236      5229      5232      5235      5237
      5229      5232      5235      5238      5230      5229      5232      5233
      5230      5229      5232      5234      5230      5229      5232      5235
      5231      5229      5232      5233      5231      5229      5232      5234
      5231      5229      5232      5235      5232      5235      5238      5239
      5232      5235      5238      5240      5232      5235      5238      5241
      5233      5232      5235      5236      5233      5232      5235      5237
      5233      5232      5235      5238      5234      5232      5235      5236
      5234      5232      5235      5237      5234      5232      5235      5238
      5235      5238      5241      5242      5235      5238      5241      5243
      5235      5238      5241      5244      5236      5235      5238      5239
      5236      5235      5238      5240      5236      5235      5238      5241
      5237      5235      5238      5239      5237      5235      5238      5240
      5237      5235      5238      5241      5238      5241      5244      5245
      5238      5241      5244      5246      5238      5241      5244      5247
      5239      5238      5241      5242      5239      5238      5241      5243
      5239      5238      5241      5244      5240      5238      5241      5242
      5240      5238      5241      5243      5240      5238      5241      5244
      5241      5244      5247      5248      5241      5244      5247      5249
      5241      5244      5247      5250      5242      5241      5244      5245
      5242      5241      5244      5246      5242      5241      5244      5247
      5243      5241      5244      5245      5243      5241      5244      5246
      5243      5241      5244      5247      5244      5247      5250      5251
      5244      5247      5250      5252      5244      5247      5250      5253
      5245      5244      5247      5248      5245      5244      5247      5249
      5245      5244      5247      5250      5246      5244      5247      5248
      5246      5244      5247      5249      5246      5244      5247      5250
      5247      5250      5253      5254      5247      5250      5253      5255
      5247      5250      5253      5256      5248      5247      5250      5251
      5248      5247      5250      5252      5248      5247      5250      5253
      5249      5247      5250      5251      5249      5247      5250      5252
      5249      5247      5250      5253      5250      5253      5256      5257
      5250      5253      5256      5258      5250      5253      5256      5259
      5251      5250      5253      5254      5251      5250      5253      5255
      5251      5250      5253      5256      5252      5250      5253      5254
      5252      5250      5253      5255      5252      5250      5253      5256
      5253      5256      5259      5260      5253      5256      5259      5261
      5253      5256      5259      5262      5254      5253      5256      5257
      5254      5253      5256      5258      5254      5253      5256      5259
      5255      5253      5256      5257      5255      5253      5256      5258
      5255      5253      5256      5259      5256      5259      5262      5263
      5256      5259      5262      5264      5256      5259      5262      5265
      5257      5256      5259      5260      5257      5256      5259      5261
      5257      5256      5259      5262      5258      5256      5259      5260
      5258      5256      5259      5261      5258      5256      5259      5262
      5259      5262      5265      5266      5259      5262      5265      5267
      5259      5262      5265      5268      5260      5259      5262      5263
      5260      5259      5262      5264      5260      5259      5262      5265
      5261      5259      5262      5263      5261      5259      5262      5264
      5261      5259      5262      5265      5262      5265      5268      5269
      5262      5265      5268      5270      5262      5265      5268      5271
      5263      5262      5265      5266      5263      5262      5265      5267
      5263      5262      5265      5268      5264      5262      5265      5266
      5264      5262      5265      5267      5264      5262      5265      5268
      5265      5268      5271      5272      5265      5268      5271      5273
      5265      5268      5271      5274      5266      5265      5268      5269
      5266      5265      5268      5270      5266      5265      5268      5271
      5267      5265      5268      5269      5267      5265      5268      5270
      5267      5265      5268      5271      5268      5271      5274      5275
      5268      5271      5274      5276      5268      5271      5274      5277
      5269      5268      5271      5272      5269      5268      5271      5273
      5269      5268      5271      5274      5270      5268      5271      5272
      5270      5268      5271      5273      5270      5268      5271      5274
      5271      5274      5277      5278      5271      5274      5277      5279
      5271      5274      5277      5280      5272      5271      5274      5275
      5272      5271      5274      5276      5272      5271      5274      5277
      5273      5271      5274      5275      5273      5271      5274      5276
      5273      5271      5274      5277      5274      5277      5280      5281
      5274      5277      5280      5282      5274      5277      5280      5283
      5275      5274      5277      5278      5275      5274      5277      5279
      5275      5274      5277      5280      5276      5274      5277      5278
      5276      5274      5277      5279      5276      5274      5277      5280
      5277      5280      5283      5284      5277      5280      5283      5285
      5277      5280      5283      5286      5278      5277      5280      5281
      5278      5277      5280      5282      5278      5277      5280      5283
      5279      5277      5280      5281      5279      5277      5280      5282
      5279      5277      5280      5283      5280      5283      5286      5287
      5280      5283      5286      5288      5280      5283      5286      5289
      5281      5280      5283      5284      5281      5280      5283      5285
      5281      5280      5283      5286      5282      5280      5283      5284
      5282      5280      5283      5285      5282      5280      5283      5286
      5283      5286      5289      5290      5283      5286      5289      5291
      5283      5286      5289      5292      5284      5283      5286      5287
      5284      5283      5286      5288      5284      5283      5286      5289
      5285      5283      5286      5287      5285      5283      5286      5288
      5285      5283      5286      5289      5286      5289      5292      5293
      5286      5289      5292      5294      5286      5289      5292      5295
      5287      5286      5289      5290      5287      5286      5289      5291
      5287      5286      5289      5292      5288      5286      5289      5290
      5288      5286      5289      5291      5288      5286      5289      5292
      5289      5292      5295      5296      5289      5292      5295      5297
      5289      5292      5295      5298      5290      5289      5292      5293
      5290      5289      5292      5294      5290      5289      5292      5295
      5291      5289      5292      5293      5291      5289      5292      5294
      5291      5289      5292      5295      5292      5295      5298      5299
      5292      5295      5298      5300      5292      5295      5298      5301
      5293      5292      5295      5296      5293      5292      5295      5297
      5293      5292      5295      5298      5294      5292      5295      5296
      5294      5292      5295      5297      5294      5292      5295      5298
      5295      5298      5301      5302      5295      5298      5301      5303
      5295      5298      5301      5304      5296      5295      5298      5299
      5296      5295      5298      5300      5296      5295      5298      5301
      5297      5295      5298      5299      5297      5295      5298      5300
      5297      5295      5298      5301      5298      5301      5304      5305
      5298      5301      5304      5306      5298      5301      5304      5307
      5299      5298      5301      5302      5299      5298      5301      5303
      5299      5298      5301      5304      5300      5298      5301      5302
      5300      5298      5301      5303      5300      5298      5301      5304
      5301      5304      5307      5308      5301      5304      5307      5309
      5301      5304      5307      5310      5302      5301      5304      5305
      5302      5301      5304      5306      5302      5301      5304      5307
      5303      5301      5304      5305      5303      5301      5304      5306
      5303      5301      5304      5307      5304      5307      5310      5311
      5304      5307      5310      5312      5304      5307      5310      5313
      5305      5304      5307      5308      5305      5304      5307      5309
      5305      5304      5307      5310      5306      5304      5307      5308
      5306      5304      5307      5309      5306      5304      5307      5310
      5307      5310      5313      5314      5307      5310      5313      5315
      5307      5310      5313      5316      5308      5307      5310      5311
      5308      5307      5310      5312      5308      5307      5310      5313
      5309      5307      5310      5311      5309      5307      5310      5312
      5309      5307      5310      5313      5310      5313      5316      5317
      5310      5313      5316      5318      5310      5313      5316      5319
      5311      5310      5313      5314      5311      5310      5313      5315
      5311      5310      5313      5316      5312      5310      5313      5314
      5312      5310      5313      5315      5312      5310      5313      5316
      5313      5316      5319      5320      5313      5316      5319      5321
      5313      5316      5319      5322      5314      5313      5316      5317
      5314      5313      5316      5318      5314      5313      5316      5319
      5315      5313      5316      5317      5315      5313      5316      5318
      5315      5313      5316      5319      5316      5319      5322      5323
      5316      5319      5322      5324      5316      5319      5322      5325
      5317      5316      5319      5320      5317      5316      5319      5321
      5317      5316      5319      5322      5318      5316      5319      5320
      5318      5316      5319      5321      5318      5316      5319      5322
      5319      5322      5325      5326      5319      5322      5325      5327
      5319      5322      5325      5328      5320      5319      5322      5323
      5320      5319      5322      5324      5320      5319      5322      5325
      5321      5319      5322      5323      5321      5319      5322      5324
      5321      5319      5322      5325      5322      5325      5328      5329
      5322      5325      5328      5330      5322      5325      5328      5331
      5323      5322      5325      5326      5323      5322      5325      5327
      5323      5322      5325      5328      5324      5322      5325      5326
      5324      5322      5325      5327      5324      5322      5325      5328
      5325      5328      5331      5332      5325      5328      5331      5333
      5325      5328      5331      5334      5326      5325      5328      5329
      5326      5325      5328      5330      5326      5325      5328      5331
      5327      5325      5328      5329      5327      5325      5328      5330
      5327      5325      5328      5331      5328      5331      5334      5335
      5328      5331      5334      5336      5328      5331      5334      5337
      5329      5328      5331      5332      5329      5328      5331      5333
      5329      5328      5331      5334      5330      5328      5331      5332
      5330      5328      5331      5333      5330      5328      5331      5334
      5331      5334      5337      5338      5331      5334      5337      5339
      5331      5334      5337      5340      5332      5331      5334      5335
      5332      5331      5334      5336      5332      5331      5334      5337
      5333      5331      5334      5335      5333      5331      5334      5336
      5333      5331      5334      5337      5334      5337      5340      5341
      5334      5337      5340      5342      5334      5337      5340      5343
      5335      5334      5337      5338      5335      5334      5337      5339
      5335      5334      5337      5340      5336      5334      5337      5338
      5336      5334      5337      5339      5336      5334      5337      5340
      5337      5340      5343      5344      5337      5340      5343      5345
      5337      5340      5343      5346      5338      5337      5340      5341
      5338      5337      5340      5342      5338      5337      5340      5343
      5339      5337      5340      5341      5339      5337      5340      5342
      5339      5337      5340      5343      5340      5343      5346      5347
      5340      5343      5346      5348      5340      5343      5346      5349
      5341      5340      5343      5344      5341      5340      5343      5345
      5341      5340      5343      5346      5342      5340      5343      5344
      5342      5340      5343      5345      5342      5340      5343      5346
      5343      5346      5349      5350      5343      5346      5349      5351
      5343      5346      5349      5352      5344      5343      5346      5347
      5344      5343      5346      5348      5344      5343      5346      5349
      5345      5343      5346      5347      5345      5343      5346      5348
      5345      5343      5346      5349      5346      5349      5352      5353
      5346      5349      5352      5354      5346      5349      5352      5355
      5347      5346      5349      5350      5347      5346      5349      5351
      5347      5346      5349      5352      5348      5346      5349      5350
      5348      5346      5349      5351      5348      5346      5349      5352
      5349      5352      5355      5356      5349      5352      5355      5357
      5349      5352      5355      5358      5350      5349      5352      5353
      5350      5349      5352      5354      5350      5349      5352      5355
      5351      5349      5352      5353      5351      5349      5352      5354
      5351      5349      5352      5355      5352      5355      5358      5359
      5352      5355      5358      5360      5352      5355      5358      5361
      5353      5352      5355      5356      5353      5352      5355      5357
      5353      5352      5355      5358      5354      5352      5355      5356
      5354      5352      5355      5357      5354      5352      5355      5358
      5355      5358      5361      5362      5355      5358      5361      5363
      5355      5358      5361      5364      5356      5355      5358      5359
      5356      5355      5358      5360      5356      5355      5358      5361
      5357      5355      5358      5359      5357      5355      5358      5360
      5357      5355      5358      5361      5358      5361      5364      5365
      5358      5361      5364      5366      5358      5361      5364      5367
      5359      5358      5361      5362      5359      5358      5361      5363
      5359      5358      5361      5364      5360      5358      5361      5362
      5360      5358      5361      5363      5360      5358      5361      5364
      5361      5364      5367      5368      5361      5364      5367      5369
      5361      5364      5367      5370      5362      5361      5364      5365
      5362      5361      5364      5366      5362      5361      5364      5367
      5363      5361      5364      5365      5363      5361      5364      5366
      5363      5361      5364      5367      5364      5367      5370      5371
      5364      5367      5370      5372      5364      5367      5370      5373
      5365      5364      5367      5368      5365      5364      5367      5369
      5365      5364      5367      5370      5366      5364      5367      5368
      5366      5364      5367      5369      5366      5364      5367      5370
      5367      5370      5373      5374      5367      5370      5373      5375
      5367      5370      5373      5376      5368      5367      5370      5371
      5368      5367      5370      5372      5368      5367      5370      5373
      5369      5367      5370      5371      5369      5367      5370      5372
      5369      5367      5370      5373      5370      5373      5376      5377
      5370      5373      5376      5378      5370      5373      5376      5379
      5371      5370      5373      5374      5371      5370      5373      5375
      5371      5370      5373      5376      5372      5370      5373      5374
      5372      5370      5373      5375      5372      5370      5373      5376
      5373      5376      5379      5380      5373      5376      5379      5381
      5373      5376      5379      5382      5374      5373      5376      5377
      5374      5373      5376      5378      5374      5373      5376      5379
      5375      5373      5376      5377      5375      5373      5376      5378
      5375      5373      5376      5379      5376      5379      5382      5383
      5376      5379      5382      5384      5376      5379      5382      5385
      5377      5376      5379      5380      5377      5376      5379      5381
      5377      5376      5379      5382      5378      5376      5379      5380
      5378      5376      5379      5381      5378      5376      5379      5382
      5379      5382      5385      5386      5379      5382      5385      5387
      5379      5382      5385      5388      5380      5379      5382      5383
      5380      5379      5382      5384      5380      5379      5382      5385
      5381      5379      5382      5383      5381      5379      5382      5384
      5381      5379      5382      5385      5382      5385      5388      5389
      5382      5385      5388      5390      5382      5385      5388      5391
      5383      5382      5385      5386      5383      5382      5385      5387
      5383      5382      5385      5388      5384      5382      5385      5386
      5384      5382      5385      5387      5384      5382      5385      5388
      5385      5388      5391      5392      5385      5388      5391      5393
      5385      5388      5391      5394      5386      5385      5388      5389
      5386      5385      5388      5390      5386      5385      5388      5391
      5387      5385      5388      5389      5387      5385      5388      5390
      5387      5385      5388      5391      5388      5391      5394      5395
      5388      5391      5394      5396      5388      5391      5394      5397
      5389      5388      5391      5392      5389      5388      5391      5393
      5389      5388      5391      5394      5390      5388      5391      5392
      5390      5388      5391      5393      5390      5388      5391      5394
      5391      5394      5397      5398      5391      5394      5397      5399
      5391      5394      5397      5400      5392      5391      5394      5395
      5392      5391      5394      5396      5392      5391      5394      5397
      5393      5391      5394      5395      5393      5391      5394      5396
      5393      5391      5394      5397      5394      5397      5400      5401
      5394      5397      5400      5402      5394      5397      5400      5403
      5395      5394      5397      5398      5395      5394      5397      5399
      5395      5394      5397      5400      5396      5394      5397      5398
      5396      5394      5397      5399      5396      5394      5397      5400
      5397      5400      5403      5404      5397      5400      5403      5405
      5397      5400      5403      5406      5398      5397      5400      5401
      5398      5397      5400      5402      5398      5397      5400      5403
      5399      5397      5400      5401      5399      5397      5400      5402
      5399      5397      5400      5403      5400      5403      5406      5407
      5400      5403      5406      5408      5400      5403      5406      5409
      5401      5400      5403      5404      5401      5400      5403      5405
      5401      5400      5403      5406      5402      5400      5403      5404
      5402      5400      5403      5405      5402      5400      5403      5406
      5403      5406      5409      5410      5403      5406      5409      5411
      5403      5406      5409      5412      5404      5403      5406      5407
      5404      5403      5406      5408      5404      5403      5406      5409
      5405      5403      5406      5407      5405      5403      5406      5408
      5405      5403      5406      5409      5406      5409      5412      5413
      5406      5409      5412      5414      5406      5409      5412      5415
      5407      5406      5409      5410      5407      5406      5409      5411
      5407      5406      5409      5412      5408      5406      5409      5410
      5408      5406      5409      5411      5408      5406      5409      5412
      5409      5412      5415      5416      5409      5412      5415      5417
      5409      5412      5415      5418      5410      5409      5412      5413
      5410      5409      5412      5414      5410      5409      5412      5415
      5411      5409      5412      5413      5411      5409      5412      5414
      5411      5409      5412      5415      5412      5415      5418      5419
      5412      5415      5418      5420      5412      5415      5418      5421
      5413      5412      5415      5416      5413      5412      5415      5417
      5413      5412      5415      5418      5414      5412      5415      5416
      5414      5412      5415      5417      5414      5412      5415      5418
      5415      5418      5421      5422      5415      5418      5421      5423
      5415      5418      5421      5424      5416      5415      5418      5419
      5416      5415      5418      5420      5416      5415      5418      5421
      5417      5415      5418      5419      5417      5415      5418      5420
      5417      5415      5418      5421      5418      5421      5424      5425
      5418      5421      5424      5426      5418      5421      5424      5427
      5419      5418      5421      5422      5419      5418      5421      5423
      5419      5418      5421      5424      5420      5418      5421      5422
      5420      5418      5421      5423      5420      5418      5421      5424
      5421      5424      5427      5428      5421      5424      5427      5429
      5421      5424      5427      5430      5422      5421      5424      5425
      5422      5421      5424      5426      5422      5421      5424      5427
      5423      5421      5424      5425      5423      5421      5424      5426
      5423      5421      5424      5427      5425      5424      5427      5428
      5425      5424      5427      5429      5425      5424      5427      5430
      5426      5424      5427      5428      5426      5424      5427      5429
      5426      5424      5427      5430      5431      5435      5438      5439
      5431      5435      5438      5440      5431      5435      5438      5441
      5432      5431      5435      5436      5432      5431      5435      5437
      5432      5431      5435      5438      5433      5431      5435      5436
      5433      5431      5435      5437      5433      5431      5435      5438
      5434      5431      5435      5436      5434      5431      5435      5437
      5434      5431      5435      5438      5435      5438      5441      5442
      5435      5438      5441      5443      5435      5438      5441      5444
      5436      5435      5438      5439      5436      5435      5438      5440
      5436      5435      5438      5441      5437      5435      5438      5439
      5437      5435      5438      5440      5437      5435      5438      5441
      5438      5441      5444      5445      5438      5441      5444      5446
      5438      5441      5444      5447      5439      5438      5441      5442
      5439      5438      5441      5443      5439      5438      5441      5444
      5440      5438      5441      5442      5440      5438      5441      5443
      5440      5438      5441      5444      5441      5444      5447      5448
      5441      5444      5447      5449      5441      5444      5447      5450
      5442      5441      5444      5445      5442      5441      5444      5446
      5442      5441      5444      5447      5443      5441      5444      5445
      5443      5441      5444      5446      5443      5441      5444      5447
      5444      5447      5450      5451      5444      5447      5450      5452
      5444      5447      5450      5453      5445      5444      5447      5448
      5445      5444      5447      5449      5445      5444      5447      5450
      5446      5444      5447      5448      5446      5444      5447      5449
      5446      5444      5447      5450      5447      5450      5453      5454
      5447      5450      5453      5455      5447      5450      5453      5456
      5448      5447      5450      5451      5448      5447      5450      5452
      5448      5447      5450      5453      5449      5447      5450      5451
      5449      5447      5450      5452      5449      5447      5450      5453
      5450      5453      5456      5457      5450      5453      5456      5458
      5450      5453      5456      5459      5451      5450      5453      5454
      5451      5450      5453      5455      5451      5450      5453      5456
      5452      5450      5453      5454      5452      5450      5453      5455
      5452      5450      5453      5456      5453      5456      5459      5460
      5453      5456      5459      5461      5453      5456      5459      5462
      5454      5453      5456      5457      5454      5453      5456      5458
      5454      5453      5456      5459      5455      5453      5456      5457
      5455      5453      5456      5458      5455      5453      5456      5459
      5456      5459      5462      5463      5456      5459      5462      5464
      5456      5459      5462      5465      5457      5456      5459      5460
      5457      5456      5459      5461      5457      5456      5459      5462
      5458      5456      5459      5460      5458      5456      5459      5461
      5458      5456      5459      5462      5459      5462      5465      5466
      5459      5462      5465      5467      5459      5462      5465      5468
      5460      5459      5462      5463      5460      5459      5462      5464
      5460      5459      5462      5465      5461      5459      5462      5463
      5461      5459      5462      5464      5461      5459      5462      5465
      5462      5465      5468      5469      5462      5465      5468      5470
      5462      5465      5468      5471      5463      5462      5465      5466
      5463      5462      5465      5467      5463      5462      5465      5468
      5464      5462      5465      5466      5464      5462      5465      5467
      5464      5462      5465      5468      5465      5468      5471      5472
      5465      5468      5471      5473      5465      5468      5471      5474
      5466      5465      5468      5469      5466      5465      5468      5470
      5466      5465      5468      5471      5467      5465      5468      5469
      5467      5465      5468      5470      5467      5465      5468      5471
      5468      5471      5474      5475      5468      5471      5474      5476
      5468      5471      5474      5477      5469      5468      5471      5472
      5469      5468      5471      5473      5469      5468      5471      5474
      5470      5468      5471      5472      5470      5468      5471      5473
      5470      5468      5471      5474      5471      5474      5477      5478
      5471      5474      5477      5479      5471      5474      5477      5480
      5472      5471      5474      5475      5472      5471      5474      5476
      5472      5471      5474      5477      5473      5471      5474      5475
      5473      5471      5474      5476      5473      5471      5474      5477
      5474      5477      5480      5481      5474      5477      5480      5482
      5474      5477      5480      5483      5475      5474      5477      5478
      5475      5474      5477      5479      5475      5474      5477      5480
      5476      5474      5477      5478      5476      5474      5477      5479
      5476      5474      5477      5480      5477      5480      5483      5484
      5477      5480      5483      5485      5477      5480      5483      5486
      5478      5477      5480      5481      5478      5477      5480      5482
      5478      5477      5480      5483      5479      5477      5480      5481
      5479      5477      5480      5482      5479      5477      5480      5483
      5480      5483      5486      5487      5480      5483      5486      5488
      5480      5483      5486      5489      5481      5480      5483      5484
      5481      5480      5483      5485      5481      5480      5483      5486
      5482      5480      5483      5484      5482      5480      5483      5485
      5482      5480      5483      5486      5483      5486      5489      5490
      5483      5486      5489      5491      5483      5486      5489      5492
      5484      5483      5486      5487      5484      5483      5486      5488
      5484      5483      5486      5489      5485      5483      5486      5487
      5485      5483      5486      5488      5485      5483      5486      5489
      5486      5489      5492      5493      5486      5489      5492      5494
      5486      5489      5492      5495      5487      5486      5489      5490
      5487      5486      5489      5491      5487      5486      5489      5492
      5488      5486      5489      5490      5488      5486      5489      5491
      5488      5486      5489      5492      5489      5492      5495      5496
      5489      5492      5495      5497      5489      5492      5495      5498
      5490      5489      5492      5493      5490      5489      5492      5494
      5490      5489      5492      5495      5491      5489      5492      5493
      5491      5489      5492      5494      5491      5489      5492      5495
      5492      5495      5498      5499      5492      5495      5498      5500
      5492      5495      5498      5501      5493      5492      5495      5496
      5493      5492      5495      5497      5493      5492      5495      5498
      5494      5492      5495      5496      5494      5492      5495      5497
      5494      5492      5495      5498      5495      5498      5501      5502
      5495      5498      5501      5503      5495      5498      5501      5504
      5496      5495      5498      5499      5496      5495      5498      5500
      5496      5495      5498      5501      5497      5495      5498      5499
      5497      5495      5498      5500      5497      5495      5498      5501
      5498      5501      5504      5505      5498      5501      5504      5506
      5498      5501      5504      5507      5499      5498      5501      5502
      5499      5498      5501      5503      5499      5498      5501      5504
      5500      5498      5501      5502      5500      5498      5501      5503
      5500      5498      5501      5504      5501      5504      5507      5508
      5501      5504      5507      5509      5501      5504      5507      5510
      5502      5501      5504      5505      5502      5501      5504      5506
      5502      5501      5504      5507      5503      5501      5504      5505
      5503      5501      5504      5506      5503      5501      5504      5507
      5504      5507      5510      5511      5504      5507      5510      5512
      5504      5507      5510      5513      5505      5504      5507      5508
      5505      5504      5507      5509      5505      5504      5507      5510
      5506      5504      5507      5508      5506      5504      5507      5509
      5506      5504      5507      5510      5507      5510      5513      5514
      5507      5510      5513      5515      5507      5510      5513      5516
      5508      5507      5510      5511      5508      5507      5510      5512
      5508      5507      5510      5513      5509      5507      5510      5511
      5509      5507      5510      5512      5509      5507      5510      5513
      5510      5513      5516      5517      5510      5513      5516      5518
      5510      5513      5516      5519      5511      5510      5513      5514
      5511      5510      5513      5515      5511      5510      5513      5516
      5512      5510      5513      5514      5512      5510      5513      5515
      5512      5510      5513      5516      5513      5516      5519      5520
      5513      5516      5519      5521      5513      5516      5519      5522
      5514      5513      5516      5517      5514      5513      5516      5518
      5514      5513      5516      5519      5515      5513      5516      5517
      5515      5513      5516      5518      5515      5513      5516      5519
      5516      5519      5522      5523      5516      5519      5522      5524
      5516      5519      5522      5525      5517      5516      5519      5520
      5517      5516      5519      5521      5517      5516      5519      5522
      5518      5516      5519      5520      5518      5516      5519      5521
      5518      5516      5519      5522      5519      5522      5525      5526
      5519      5522      5525      5527      5519      5522      5525      5528
      5520      5519      5522      5523      5520      5519      5522      5524
      5520      5519      5522      5525      5521      5519      5522      5523
      5521      5519      5522      5524      5521      5519      5522      5525
      5522      5525      5528      5529      5522      5525      5528      5530
      5522      5525      5528      5531      5523      5522      5525      5526
      5523      5522      5525      5527      5523      5522      5525      5528
      5524      5522      5525      5526      5524      5522      5525      5527
      5524      5522      5525      5528      5525      5528      5531      5532
      5525      5528      5531      5533      5525      5528      5531      5534
      5526      5525      5528      5529      5526      5525      5528      5530
      5526      5525      5528      5531      5527      5525      5528      5529
      5527      5525      5528      5530      5527      5525      5528      5531
      5528      5531      5534      5535      5528      5531      5534      5536
      5528      5531      5534      5537      5529      5528      5531      5532
      5529      5528      5531      5533      5529      5528      5531      5534
      5530      5528      5531      5532      5530      5528      5531      5533
      5530      5528      5531      5534      5531      5534      5537      5538
      5531      5534      5537      5539      5531      5534      5537      5540
      5532      5531      5534      5535      5532      5531      5534      5536
      5532      5531      5534      5537      5533      5531      5534      5535
      5533      5531      5534      5536      5533      5531      5534      5537
      5534      5537      5540      5541      5534      5537      5540      5542
      5534      5537      5540      5543      5535      5534      5537      5538
      5535      5534      5537      5539      5535      5534      5537      5540
      5536      5534      5537      5538      5536      5534      5537      5539
      5536      5534      5537      5540      5537      5540      5543      5544
      5537      5540      5543      5545      5537      5540      5543      5546
      5538      5537      5540      5541      5538      5537      5540      5542
      5538      5537      5540      5543      5539      5537      5540      5541
      5539      5537      5540      5542      5539      5537      5540      5543
      5540      5543      5546      5547      5540      5543      5546      5548
      5540      5543      5546      5549      5541      5540      5543      5544
      5541      5540      5543      5545      5541      5540      5543      5546
      5542      5540      5543      5544      5542      5540      5543      5545
      5542      5540      5543      5546      5543      5546      5549      5550
      5543      5546      5549      5551      5543      5546      5549      5552
      5544      5543      5546      5547      5544      5543      5546      5548
      5544      5543      5546      5549      5545      5543      5546      5547
      5545      5543      5546      5548      5545      5543      5546      5549
      5546      5549      5552      5553      5546      5549      5552      5554
      5546      5549      5552      5555      5547      5546      5549      5550
      5547      5546      5549      5551      5547      5546      5549      5552
      5548      5546      5549      5550      5548      5546      5549      5551
      5548      5546      5549      5552      5549      5552      5555      5556
      5549      5552      5555      5557      5549      5552      5555      5558
      5550      5549      5552      5553      5550      5549      5552      5554
      5550      5549      5552      5555      5551      5549      5552      5553
      5551      5549      5552      5554      5551      5549      5552      5555
      5552      5555      5558      5559      5552      5555      5558      5560
      5552      5555      5558      5561      5553      5552      5555      5556
      5553      5552      5555      5557      5553      5552      5555      5558
      5554      5552      5555      5556      5554      5552      5555      5557
      5554      5552      5555      5558      5555      5558      5561      5562
      5555      5558      5561      5563      5555      5558      5561      5564
      5556      5555      5558      5559      5556      5555      5558      5560
      5556      5555      5558      5561      5557      5555      5558      5559
      5557      5555      5558      5560      5557      5555      5558      5561
      5558      5561      5564      5565      5558      5561      5564      5566
      5558      5561      5564      5567      5559      5558      5561      5562
      5559      5558      5561      5563      5559      5558      5561      5564
      5560      5558      5561      5562      5560      5558      5561      5563
      5560      5558      5561      5564      5561      5564      5567      5568
      5561      5564      5567      5569      5561      5564      5567      5570
      5562      5561      5564      5565      5562      5561      5564      5566
      5562      5561      5564      5567      5563      5561      5564      5565
      5563      5561      5564      5566      5563      5561      5564      5567
      5564      5567      5570      5571      5564      5567      5570      5572
      5564      5567      5570      5573      5565      5564      5567      5568
      5565      5564      5567      5569      5565      5564      5567      5570
      5566      5564      5567      5568      5566      5564      5567      5569
      5566      5564      5567      5570      5567      5570      5573      5574
      5567      5570      5573      5575      5567      5570      5573      5576
      5568      5567      5570      5571      5568      5567      5570      5572
      5568      5567      5570      5573      5569      5567      5570      5571
      5569      5567      5570      5572      5569      5567      5570      5573
      5570      5573      5576      5577      5570      5573      5576      5578
      5570      5573      5576      5579      5571      5570      5573      5574
      5571      5570      5573      5575      5571      5570      5573      5576
      5572      5570      5573      5574      5572      5570      5573      5575
      5572      5570      5573      5576      5573      5576      5579      5580
      5573      5576      5579      5581      5573      5576      5579      5582
      5574      5573      5576      5577      5574      5573      5576      5578
      5574      5573      5576      5579      5575      5573      5576      5577
      5575      5573      5576      5578      5575      5573      5576      5579
      5576      5579      5582      5583      5576      5579      5582      5584
      5576      5579      5582      5585      5577      5576      5579      5580
      5577      5576      5579      5581      5577      5576      5579      5582
      5578      5576      5579      5580      5578      5576      5579      5581
      5578      5576      5579      5582      5579      5582      5585      5586
      5579      5582      5585      5587      5579      5582      5585      5588
      5580      5579      5582      5583      5580      5579      5582      5584
      5580      5579      5582      5585      5581      5579      5582      5583
      5581      5579      5582      5584      5581      5579      5582      5585
      5582      5585      5588      5589      5582      5585      5588      5590
      5582      5585      5588      5591      5583      5582      5585      5586
      5583      5582      5585      5587      5583      5582      5585      5588
      5584      5582      5585      5586      5584      5582      5585      5587
      5584      5582      5585      5588      5585      5588      5591      5592
      5585      5588      5591      5593      5585      5588      5591      5594
      5586      5585      5588      5589      5586      5585      5588      5590
      5586      5585      5588      5591      5587      5585      5588      5589
      5587      5585      5588      5590      5587      5585      5588      5591
      5588      5591      5594      5595      5588      5591      5594      5596
      5588      5591      5594      5597      5589      5588      5591      5592
      5589      5588      5591      5593      5589      5588      5591      5594
      5590      5588      5591      5592      5590      5588      5591      5593
      5590      5588      5591      5594      5591      5594      5597      5598
      5591      5594      5597      5599      5591      5594      5597      5600
      5592      5591      5594      5595      5592      5591      5594      5596
      5592      5591      5594      5597      5593      5591      5594      5595
      5593      5591      5594      5596      5593      5591      5594      5597
      5594      5597      5600      5601      5594      5597      5600      5602
      5594      5597      5600      5603      5595      5594      5597      5598
      5595      5594      5597      5599      5595      5594      5597      5600
      5596      5594      5597      5598      5596      5594      5597      5599
      5596      5594      5597      5600      5597      5600      5603      5604
      5597      5600      5603      5605      5597      5600      5603      5606
      5598      5597      5600      5601      5598      5597      5600      5602
      5598      5597      5600      5603      5599      5597      5600      5601
      5599      5597      5600      5602      5599      5597      5600      5603
      5600      5603      5606      5607      5600      5603      5606      5608
      5600      5603      5606      5609      5601      5600      5603      5604
      5601      5600      5603      5605      5601      5600      5603      5606
      5602      5600      5603      5604      5602      5600      5603      5605
      5602      5600      5603      5606      5603      5606      5609      5610
      5603      5606      5609      5611      5603      5606      5609      5612
      5604      5603      5606      5607      5604      5603      5606      5608
      5604      5603      5606      5609      5605      5603      5606      5607
      5605      5603      5606      5608      5605      5603      5606      5609
      5606      5609      5612      5613      5606      5609      5612      5614
      5606      5609      5612      5615      5607      5606      5609      5610
      5607      5606      5609      5611      5607      5606      5609      5612
      5608      5606      5609      5610      5608      5606      5609      5611
      5608      5606      5609      5612      5609      5612      5615      5616
      5609      5612      5615      5617      5609      5612      5615      5618
      5610      5609      5612      5613      5610      5609      5612      5614
      5610      5609      5612      5615      5611      5609      5612      5613
      5611      5609      5612      5614      5611      5609      5612      5615
      5612      5615      5618      5619      5612      5615      5618      5620
      5612      5615      5618      5621      5613      5612      5615      5616
      5613      5612      5615      5617      5613      5612      5615      5618
      5614      5612      5615      5616      5614      5612      5615      5617
      5614      5612      5615      5618      5615      5618      5621      5622
      5615      5618      5621      5623      5615      5618      5621      5624
      5616      5615      5618      5619      5616      5615      5618      5620
      5616      5615      5618      5621      5617      5615      5618      5619
      5617      5615      5618      5620      5617      5615      5618      5621
      5618      5621      5624      5625      5618      5621      5624      5626
      5618      5621      5624      5627      5619      5618      5621      5622
      5619      5618      5621      5623      5619      5618      5621      5624
      5620      5618      5621      5622      5620      5618      5621      5623
      5620      5618      5621      5624      5621      5624      5627      5628
      5621      5624      5627      5629      5621      5624      5627      5630
      5622      5621      5624      5625      5622      5621      5624      5626
      5622      5621      5624      5627      5623      5621      5624      5625
      5623      5621      5624      5626      5623      5621      5624      5627
      5624      5627      5630      5631      5624      5627      5630      5632
      5624      5627      5630      5633      5625      5624      5627      5628
      5625      5624      5627      5629      5625      5624      5627      5630
      5626      5624      5627      5628      5626      5624      5627      5629
      5626      5624      5627      5630      5627      5630      5633      5634
      5627      5630      5633      5635      5627      5630      5633      5636
      5628      5627      5630      5631      5628      5627      5630      5632
      5628      5627      5630      5633      5629      5627      5630      5631
      5629      5627      5630      5632      5629      5627      5630      5633
      5630      5633      5636      5637      5630      5633      5636      5638
      5630      5633      5636      5639      5631      5630      5633      5634
      5631      5630      5633      5635      5631      5630      5633      5636
      5632      5630      5633      5634      5632      5630      5633      5635
      5632      5630      5633      5636      5633      5636      5639      5640
      5633      5636      5639      5641      5633      5636      5639      5642
      5634      5633      5636      5637      5634      5633      5636      5638
      5634      5633      5636      5639      5635      5633      5636      5637
      5635      5633      5636      5638      5635      5633      5636      5639
      5636      5639      5642      5643      5636      5639      5642      5644
      5636      5639      5642      5645      5637      5636      5639      5640
      5637      5636      5639      5641      5637      5636      5639      5642
      5638      5636      5639      5640      5638      5636      5639      5641
      5638      5636      5639      5642      5639      5642      5645      5646
      5639      5642      5645      5647      5639      5642      5645      5648
      5640      5639      5642      5643      5640      5639      5642      5644
      5640      5639      5642      5645      5641      5639      5642      5643
      5641      5639      5642      5644      5641      5639      5642      5645
      5642      5645      5648      5649      5642      5645      5648      5650
      5642      5645      5648      5651      5643      5642      5645      5646
      5643      5642      5645      5647      5643      5642      5645      5648
      5644      5642      5645      5646      5644      5642      5645      5647
      5644      5642      5645      5648      5645      5648      5651      5652
      5645      5648      5651      5653      5645      5648      5651      5654
      5646      5645      5648      5649      5646      5645      5648      5650
      5646      5645      5648      5651      5647      5645      5648      5649
      5647      5645      5648      5650      5647      5645      5648      5651
      5648      5651      5654      5655      5648      5651      5654      5656
      5648      5651      5654      5657      5649      5648      5651      5652
      5649      5648      5651      5653      5649      5648      5651      5654
      5650      5648      5651      5652      5650      5648      5651      5653
      5650      5648      5651      5654      5651      5654      5657      5658
      5651      5654      5657      5659      5651      5654      5657      5660
      5652      5651      5654      5655      5652      5651      5654      5656
      5652      5651      5654      5657      5653      5651      5654      5655
      5653      5651      5654      5656      5653      5651      5654      5657
      5654      5657      5660      5661      5654      5657      5660      5662
      5654      5657      5660      5663      5655      5654      5657      5658
      5655      5654      5657      5659      5655      5654      5657      5660
      5656      5654      5657      5658      5656      5654      5657      5659
      5656      5654      5657      5660      5657      5660      5663      5664
      5657      5660      5663      5665      5657      5660      5663      5666
      5658      5657      5660      5661      5658      5657      5660      5662
      5658      5657      5660      5663      5659      5657      5660      5661
      5659      5657      5660      5662      5659      5657      5660      5663
      5660      5663      5666      5667      5660      5663      5666      5668
      5660      5663      5666      5669      5661      5660      5663      5664
      5661      5660      5663      5665      5661      5660      5663      5666
      5662      5660      5663      5664      5662      5660      5663      5665
      5662      5660      5663      5666      5663      5666      5669      5670
      5663      5666      5669      5671      5663      5666      5669      5672
      5664      5663      5666      5667      5664      5663      5666      5668
      5664      5663      5666      5669      5665      5663      5666      5667
      5665      5663      5666      5668      5665      5663      5666      5669
      5666      5669      5672      5673      5666      5669      5672      5674
      5666      5669      5672      5675      5667      5666      5669      5670
      5667      5666      5669      5671      5667      5666      5669      5672
      5668      5666      5669      5670      5668      5666      5669      5671
      5668      5666      5669      5672      5669      5672      5675      5676
      5669      5672      5675      5677      5669      5672      5675      5678
      5670      5669      5672      5673      5670      5669      5672      5674
      5670      5669      5672      5675      5671      5669      5672      5673
      5671      5669      5672      5674      5671      5669      5672      5675
      5672      5675      5678      5679      5672      5675      5678      5680
      5672      5675      5678      5681      5673      5672      5675      5676
      5673      5672      5675      5677      5673      5672      5675      5678
      5674      5672      5675      5676      5674      5672      5675      5677
      5674      5672      5675      5678      5675      5678      5681      5682
      5675      5678      5681      5683      5675      5678      5681      5684
      5676      5675      5678      5679      5676      5675      5678      5680
      5676      5675      5678      5681      5677      5675      5678      5679
      5677      5675      5678      5680      5677      5675      5678      5681
      5678      5681      5684      5685      5678      5681      5684      5686
      5678      5681      5684      5687      5679      5678      5681      5682
      5679      5678      5681      5683      5679      5678      5681      5684
      5680      5678      5681      5682      5680      5678      5681      5683
      5680      5678      5681      5684      5681      5684      5687      5688
      5681      5684      5687      5689      5681      5684      5687      5690
      5682      5681      5684      5685      5682      5681      5684      5686
      5682      5681      5684      5687      5683      5681      5684      5685
      5683      5681      5684      5686      5683      5681      5684      5687
      5684      5687      5690      5691      5684      5687      5690      5692
      5684      5687      5690      5693      5685      5684      5687      5688
      5685      5684      5687      5689      5685      5684      5687      5690
      5686      5684      5687      5688      5686      5684      5687      5689
      5686      5684      5687      5690      5687      5690      5693      5694
      5687      5690      5693      5695      5687      5690      5693      5696
      5688      5687      5690      5691      5688      5687      5690      5692
      5688      5687      5690      5693      5689      5687      5690      5691
      5689      5687      5690      5692      5689      5687      5690      5693
      5690      5693      5696      5697      5690      5693      5696      5698
      5690      5693      5696      5699      5691      5690      5693      5694
      5691      5690      5693      5695      5691      5690      5693      5696
      5692      5690      5693      5694      5692      5690      5693      5695
      5692      5690      5693      5696      5693      5696      5699      5700
      5693      5696      5699      5701      5693      5696      5699      5702
      5694      5693      5696      5697      5694      5693      5696      5698
      5694      5693      5696      5699      5695      5693      5696      5697
      5695      5693      5696      5698      5695      5693      5696      5699
      5696      5699      5702      5703      5696      5699      5702      5704
      5696      5699      5702      5705      5697      5696      5699      5700
      5697      5696      5699      5701      5697      5696      5699      5702
      5698      5696      5699      5700      5698      5696      5699      5701
      5698      5696      5699      5702      5699      5702      5705      5706
      5699      5702      5705      5707      5699      5702      5705      5708
      5700      5699      5702      5703      5700      5699      5702      5704
      5700      5699      5702      5705      5701      5699      5702      5703
      5701      5699      5702      5704      5701      5699      5702      5705
      5702      5705      5708      5709      5702      5705      5708      5710
      5702      5705      5708      5711      5703      5702      5705      5706
      5703      5702      5705      5707      5703      5702      5705      5708
      5704      5702      5705      5706      5704      5702      5705      5707
      5704      5702      5705      5708      5705      5708      5711      5712
      5705      5708      5711      5713      5705      5708      5711      5714
      5706      5705      5708      5709      5706      5705      5708      5710
      5706      5705      5708      5711      5707      5705      5708      5709
      5707      5705      5708      5710      5707      5705      5708      5711
      5708      5711      5714      5715      5708      5711      5714      5716
      5708      5711      5714      5717      5709      5708      5711      5712
      5709      5708      5711      5713      5709      5708      5711      5714
      5710      5708      5711      5712      5710      5708      5711      5713
      5710      5708      5711      5714      5711      5714      5717      5718
      5711      5714      5717      5719      5711      5714      5717      5720
      5712      5711      5714      5715      5712      5711      5714      5716
      5712      5711      5714      5717      5713      5711      5714      5715
      5713      5711      5714      5716      5713      5711      5714      5717
      5714      5717      5720      5721      5714      5717      5720      5722
      5714      5717      5720      5723      5715      5714      5717      5718
      5715      5714      5717      5719      5715      5714      5717      5720
      5716      5714      5717      5718      5716      5714      5717      5719
      5716      5714      5717      5720      5717      5720      5723      5724
      5717      5720      5723      5725      5717      5720      5723      5726
      5718      5717      5720      5721      5718      5717      5720      5722
      5718      5717      5720      5723      5719      5717      5720      5721
      5719      5717      5720      5722      5719      5717      5720      5723
      5720      5723      5726      5727      5720      5723      5726      5728
      5720      5723      5726      5729      5721      5720      5723      5724
      5721      5720      5723      5725      5721      5720      5723      5726
      5722      5720      5723      5724      5722      5720      5723      5725
      5722      5720      5723      5726      5723      5726      5729      5730
      5723      5726      5729      5731      5723      5726      5729      5732
      5724      5723      5726      5727      5724      5723      5726      5728
      5724      5723      5726      5729      5725      5723      5726      5727
      5725      5723      5726      5728      5725      5723      5726      5729
      5726      5729      5732      5733      5726      5729      5732      5734
      5726      5729      5732      5735      5727      5726      5729      5730
      5727      5726      5729      5731      5727      5726      5729      5732
      5728      5726      5729      5730      5728      5726      5729      5731
      5728      5726      5729      5732      5729      5732      5735      5736
      5729      5732      5735      5737      5729      5732      5735      5738
      5730      5729      5732      5733      5730      5729      5732      5734
      5730      5729      5732      5735      5731      5729      5732      5733
      5731      5729      5732      5734      5731      5729      5732      5735
      5732      5735      5738      5739      5732      5735      5738      5740
      5732      5735      5738      5741      5733      5732      5735      5736
      5733      5732      5735      5737      5733      5732      5735      5738
      5734      5732      5735      5736      5734      5732      5735      5737
      5734      5732      5735      5738      5735      5738      5741      5742
      5735      5738      5741      5743      5735      5738      5741      5744
      5736      5735      5738      5739      5736      5735      5738      5740
      5736      5735      5738      5741      5737      5735      5738      5739
      5737      5735      5738      5740      5737      5735      5738      5741
      5738      5741      5744      5745      5738      5741      5744      5746
      5738      5741      5744      5747      5739      5738      5741      5742
      5739      5738      5741      5743      5739      5738      5741      5744
      5740      5738      5741      5742      5740      5738      5741      5743
      5740      5738      5741      5744      5741      5744      5747      5748
      5741      5744      5747      5749      5741      5744      5747      5750
      5742      5741      5744      5745      5742      5741      5744      5746
      5742      5741      5744      5747      5743      5741      5744      5745
      5743      5741      5744      5746      5743      5741      5744      5747
      5744      5747      5750      5751      5744      5747      5750      5752
      5744      5747      5750      5753      5745      5744      5747      5748
      5745      5744      5747      5749      5745      5744      5747      5750
      5746      5744      5747      5748      5746      5744      5747      5749
      5746      5744      5747      5750      5747      5750      5753      5754
      5747      5750      5753      5755      5747      5750      5753      5756
      5748      5747      5750      5751      5748      5747      5750      5752
      5748      5747      5750      5753      5749      5747      5750      5751
      5749      5747      5750      5752      5749      5747      5750      5753
      5750      5753      5756      5757      5750      5753      5756      5758
      5750      5753      5756      5759      5751      5750      5753      5754
      5751      5750      5753      5755      5751      5750      5753      5756
      5752      5750      5753      5754      5752      5750      5753      5755
      5752      5750      5753      5756      5753      5756      5759      5760
      5753      5756      5759      5761      5753      5756      5759      5762
      5754      5753      5756      5757      5754      5753      5756      5758
      5754      5753      5756      5759      5755      5753      5756      5757
      5755      5753      5756      5758      5755      5753      5756      5759
      5756      5759      5762      5763      5756      5759      5762      5764
      5756      5759      5762      5765      5757      5756      5759      5760
      5757      5756      5759      5761      5757      5756      5759      5762
      5758      5756      5759      5760      5758      5756      5759      5761
      5758      5756      5759      5762      5759      5762      5765      5766
      5759      5762      5765      5767      5759      5762      5765      5768
      5760      5759      5762      5763      5760      5759      5762      5764
      5760      5759      5762      5765      5761      5759      5762      5763
      5761      5759      5762      5764      5761      5759      5762      5765
      5762      5765      5768      5769      5762      5765      5768      5770
      5762      5765      5768      5771      5763      5762      5765      5766
      5763      5762      5765      5767      5763      5762      5765      5768
      5764      5762      5765      5766      5764      5762      5765      5767
      5764      5762      5765      5768      5765      5768      5771      5772
      5765      5768      5771      5773      5765      5768      5771      5774
      5766      5765      5768      5769      5766      5765      5768      5770
      5766      5765      5768      5771      5767      5765      5768      5769
      5767      5765      5768      5770      5767      5765      5768      5771
      5768      5771      5774      5775      5768      5771      5774      5776
      5768      5771      5774      5777      5769      5768      5771      5772
      5769      5768      5771      5773      5769      5768      5771      5774
      5770      5768      5771      5772      5770      5768      5771      5773
      5770      5768      5771      5774      5771      5774      5777      5778
      5771      5774      5777      5779      5771      5774      5777      5780
      5772      5771      5774      5775      5772      5771      5774      5776
      5772      5771      5774      5777      5773      5771      5774      5775
      5773      5771      5774      5776      5773      5771      5774      5777
      5774      5777      5780      5781      5774      5777      5780      5782
      5774      5777      5780      5783      5775      5774      5777      5778
      5775      5774      5777      5779      5775      5774      5777      5780
      5776      5774      5777      5778      5776      5774      5777      5779
      5776      5774      5777      5780      5777      5780      5783      5784
      5777      5780      5783      5785      5777      5780      5783      5786
      5778      5777      5780      5781      5778      5777      5780      5782
      5778      5777      5780      5783      5779      5777      5780      5781
      5779      5777      5780      5782      5779      5777      5780      5783
      5780      5783      5786      5787      5780      5783      5786      5788
      5780      5783      5786      5789      5781      5780      5783      5784
      5781      5780      5783      5785      5781      5780      5783      5786
      5782      5780      5783      5784      5782      5780      5783      5785
      5782      5780      5783      5786      5783      5786      5789      5790
      5783      5786      5789      5791      5783      5786      5789      5792
      5784      5783      5786      5787      5784      5783      5786      5788
      5784      5783      5786      5789      5785      5783      5786      5787
      5785      5783      5786      5788      5785      5783      5786      5789
      5787      5786      5789      5790      5787      5786      5789      5791
      5787      5786      5789      5792      5788      5786      5789      5790
      5788      5786      5789      5791      5788      5786      5789      5792

       0 !NIMPHI: impropers


       0 !NDON: donors


       0 !NACC: acceptors


       0 !NNB

         0         0         0         0         0         0         0         0
         0         0         0         0         0         0         0         0
         0         0         0         0         0         0         0         0
         0         0         0         0         0         0         0         0
         0         0         0         0         0         0         0         0
         0         0         0         0         0         0         0         0
         0         0         0         0         0         0         0         0
         0         0         0         0         0         0         0         0
         0         0         0         0         0         0         0         0
         0         0         0         0         0         0         0         0
         0         0         0         0         0         0         0         0
         0         0         0         0         0         0         0         0
         0         0         0         0         0         0         0         0
         0         0         0         0         0         0         0         0
         0         0         0         0         0         0         0         0
         0         0         0         0         0         0         0         0
         0         0         0         0         0         0         0         0
         0         0         0         0         0         0         0         0
         0         0         0         0         0         0         0         0
         0         0         0         0         0         0         0         0
         0         0         0         0         0         0         0         0
         0         0         0         0         0         0         0         0
         0         0         0         0         0         0         0         0
         0         0         0         0         0         0         0         0
         0         0         0         0         0         0         0         0
         0         0         0         0         0         0         0         0
         0         0         0         0         0         0         0         0
         0         0         0         0         0         0         0         0
         0         0         0         0         0         0         0         0
         0         0         0         0         0         0         0         0
         0         0         0         0         0         0         0         0
         0         0         0         0         0         0         0         0
         0         0         0         0         0         0         0         0
         0         0         0         0         0         0         0         0
         0         0         0         0         0         0         0         0
         0         0         0         0         0         0         0         0
         0         0         0         0         0         0         0         0
         0         0         0         0         0         0         0         0
         0         0         0         0         0         0         0         0
         0         0         0         0         0         0         0         0
         0         0         0         0         0         0         0         0
         0         0         0         0         0         0         0         0
         0         0         0         0         0         0         0         0
         0         0         0         0         0         0         0         0
         0         0         0         0         0         0         0         0
         0         0         0         0         0         0         0         0
         0         0         0         0         0         0         0         0
         0         0         0         0         0         0         0         0
         0         0         0         0         0         0         0         0
         0         0         0         0         0         0         0         0
         0         0         0         0         0         0         0         0
         0         0         0         0         0         0         0         0
         0         0         0         0         0         0         0         0
         0         0         0         0         0         0         0         0
         0         0         0         0         0         0         0         0
         0         0         0         0         0         0         0         0
         0         0         0         0         0         0         0         0
         0         0         0         0         0         0         0         0
         0         0         0         0         0         0         0         0
         0         0         0         0         0         0         0         0
         0         0         0         0         0         0         0         0
         0         0         0         0         0         0         0         0
         0         0         0         0         0         0         0         0
         0         0         0         0         0         0         0         0
         0         0         0         0         0         0         0         0
         0         0         0         0         0         0         0         0
         0         0         0         0         0         0         0         0
         0         0         0         0         0         0         0         0
         0         0         0         0         0         0         0         0
         0         0         0         0         0         0         0         0
         0         0         0         0         0         0         0         0
         0         0         0         0         0         0         0         0
         0         0         0         0         0         0         0         0
         0         0         0         0         0         0         0         0
         0         0         0         0         0         0         0         0
         0         0         0         0         0         0         0         0
         0         0         0         0         0         0         0         0
         0         0         0         0         0         0         0         0
         0         0         0         0         0         0         0         0
         0         0         0         0         0         0         0         0
         0         0         0         0         0         0         0         0
         0         0         0         0         0         0         0         0
         0         0         0         0         0         0         0         0
         0         0         0         0         0         0         0         0
         0         0         0         0         0         0         0         0
         0         0         0         0         0         0         0         0
         0         0         0         0         0         0         0         0
         0         0         0         0         0         0         0         0
         0         0         0         0         0         0         0         0
         0         0         0         0         0         0         0         0
         0         0         0         0         0         0         0         0
         0         0         0         0         0         0         0         0
         0         0         0         0         0         0         0         0
         0         0         0         0         0         0         0         0
         0         0         0         0         0         0         0         0
         0         0         0         0         0         0         0         0
         0         0         0         0         0         0         0         0
         0         0         0         0         0         0         0         0
         0         0         0         0         0         0         0         0
         0         0         0         0         0         0         0         0
         0         0         0         0         0         0         0         0
         0         0         0         0         0         0         0         0
         0         0         0         0         0         0         0         0
         0         0         0         0         0         0         0         0
         0         0         0         0         0         0         0         0
         0         0         0         0         0         0         0         0
         0         0         0         0         0         0         0         0
         0         0         0         0         0         0         0         0
         0         0         0         0         0         0         0         0
         0         0         0         0         0         0         0         0
         0         0         0         0         0         0         0         0
         0         0         0         0         0         0         0         0
         0         0         0         0         0         0         0         0
         0         0         0         0         0         0         0         0
         0         0         0         0         0         0         0         0
         0         0         0         0         0         0         0         0
         0         0         0         0         0         0         0         0
         0         0         0         0         0         0         0         0
         0         0         0         0         0         0         0         0
         0         0         0         0         0         0         0         0
         0         0         0         0         0         0         0         0
         0         0         0         0         0         0         0         0
         0         0         0         0         0         0         0         0
         0         0         0         0         0         0         0         0
         0         0         0         0         0         0         0         0
         0         0         0         0         0         0         0         0
         0         0         0         0         0         0         0         0
         0         0         0         0         0         0         0         0
         0         0         0         0         0         0         0         0
         0         0         0         0         0         0         0         0
         0         0         0         0         0         0         0         0
         0         0         0         0         0         0         0         0
         0         0         0         0         0         0         0         0
         0         0         0         0         0         0         0         0
         0         0         0         0         0         0         0         0
         0         0         0         0         0         0         0         0
         0         0         0         0         0         0         0         0
         0         0         0         0         0         0         0         0
         0         0         0         0         0         0         0         0
         0         0         0         0         0         0         0         0
         0         0         0         0         0         0         0         0
         0         0         0         0         0         0         0         0
         0         0         0         0         0         0         0         0
         0         0         0         0         0         0         0         0
         0         0         0         0         0         0         0         0
         0         0         0         0         0         0         0         0
         0         0         0         0         0         0         0         0
         0         0         0         0         0         0         0         0
         0         0         0         0         0         0         0         0
         0         0         0         0         0         0         0         0
         0         0         0         0         0         0         0         0
         0         0         0         0         0         0         0         0
         0         0         0         0         0         0         0         0
         0         0         0         0         0         0         0         0
         0         0         0         0         0         0         0         0
         0         0         0         0         0         0         0         0
         0         0         0         0         0         0         0         0
         0         0         0         0         0         0         0         0
         0         0         0         0         0         0         0         0
         0         0         0         0         0         0         0         0
         0         0         0         0         0         0         0         0
         0         0         0         0         0         0         0         0
         0         0         0         0         0         0         0         0
         0         0         0         0         0         0         0         0
         0         0         0         0         0         0         0         0
         0         0         0         0         0         0         0         0
         0         0         0         0         0         0         0         0
         0         0         0         0         0         0         0         0
         0         0         0         0         0         0         0         0
         0         0         0         0         0         0         0         0
         0         0         0         0         0         0         0         0
         0         0         0         0         0         0         0         0
         0         0         0         0         0         0         0         0
         0         0         0         0         0         0         0         0
         0         0         0         0         0         0         0         0
         0         0         0         0         0         0         0         0
         0         0         0         0         0         0         0         0
         0         0         0         0         0         0         0         0
         0         0         0         0         0         0         0         0
         0         0         0         0         0         0         0         0
         0         0         0         0         0         0         0         0
         0         0         0         0         0         0         0         0
         0         0         0         0         0         0         0         0
         0         0         0         0         0         0         0         0
         0         0         0         0         0         0         0         0
         0         0         0         0         0         0         0         0
         0         0         0         0         0         0         0         0
         0         0         0         0         0         0         0         0
         0         0         0         0         0         0         0         0
         0         0         0         0         0         0         0         0
         0         0         0         0         0         0         0         0
         0         0         0         0         0         0         0         0
         0         0         0         0         0         0         0         0
         0         0         0         0         0         0         0         0
         0         0         0         0         0         0         0         0
         0         0         0         0         0         0         0         0
         0         0         0         0         0         0         0         0
         0         0         0         0         0         0         0         0
         0         0         0         0         0         0         0         0
         0         0         0         0         0         0         0         0
         0         0         0         0         0         0         0         0
         0         0         0         0         0         0         0         0
         0         0         0         0         0         0         0         0
         0         0         0         0         0         0         0         0
         0         0         0         0         0         0         0         0
         0         0         0         0         0         0         0         0
         0         0         0         0         0         0         0         0
         0         0         0         0         0         0         0         0
         0         0         0         0         0         0         0         0
         0         0         0         0         0         0         0         0
         0         0         0         0         0         0         0         0
         0         0         0         0         0         0         0         0
         0         0         0         0         0         0         0         0
         0         0         0         0         0         0         0         0
         0         0         0         0         0         0         0         0
         0         0         0         0         0         0         0         0
         0         0         0         0         0         0         0         0
         0         0         0         0         0         0         0         0
         0         0         0         0         0         0         0         0
         0         0         0         0         0         0         0         0
         0         0         0         0         0         0         0         0
         0         0         0         0         0         0         0         0
         0         0         0         0         0         0         0         0
         0         0         0         0         0         0         0         0
         0         0         0         0         0         0         0         0
         0         0         0         0         0         0         0         0
         0         0         0         0         0         0         0         0
         0         0         0         0         0         0         0         0
         0         0         0         0         0         0         0         0
         0         0         0         0         0         0         0         0
         0         0         0         0         0         0         0         0
         0         0         0         0         0         0         0         0
         0         0         0         0         0         0         0         0
         0         0         0         0         0         0         0         0
         0         0         0         0         0         0         0         0
         0         0         0         0         0         0         0         0
         0         0         0         0         0         0         0         0
         0         0         0         0         0         0         0         0
         0         0         0         0         0         0         0         0
         0         0         0         0         0         0         0         0
         0         0         0         0         0         0         0         0
         0         0         0         0         0         0         0         0
         0         0         0         0         0         0         0         0
         0         0         0         0         0         0         0         0
         0         0         0         0         0         0         0         0
         0         0         0         0         0         0         0         0
         0         0         0         0         0         0         0         0
         0         0         0         0         0         0         0         0
         0         0         0         0         0         0         0         0
         0         0         0         0         0         0         0         0
         0         0         0         0         0         0         0         0
         0         0         0         0         0         0         0         0
         0         0         0         0         0         0         0         0
         0         0         0         0         0         0         0         0
         0         0         0         0         0         0         0         0
         0         0         0         0         0         0         0         0
         0         0         0         0         0         0         0         0
         0         0         0         0         0         0         0         0
         0         0         0         0         0         0         0         0
         0         0         0         0         0         0         0         0
         0         0         0         0         0         0         0         0
         0         0         0         0         0         0         0         0
         0         0         0         0         0         0         0         0
         0         0         0         0         0         0         0         0
         0         0         0         0         0         0         0         0
         0         0         0         0         0         0         0         0
         0         0         0         0         0         0         0         0
         0         0         0         0         0         0         0         0
         0         0         0         0         0         0         0         0
         0         0         0         0         0         0         0         0
         0         0         0         0         0         0         0         0
         0         0         0         0         0         0         0         0
         0         0         0         0         0         0         0         0
         0         0         0         0         0         0         0         0
         0         0         0         0         0         0         0         0
         0         0         0         0         0         0         0         0
         0         0         0         0         0         0         0         0
         0         0         0         0         0         0         0         0
         0         0         0         0         0         0         0         0
         0         0         0         0         0         0         0         0
         0         0         0         0         0         0         0         0
         0         0         0         0         0         0         0         0
         0         0         0         0         0         0         0         0
         0         0         0         0         0         0         0         0
         0         0         0         0         0         0         0         0
         0         0         0         0         0         0         0         0
         0         0         0         0         0         0         0         0
         0         0         0         0         0         0         0         0
         0         0         0         0         0         0         0         0
         0         0         0         0         0         0         0         0
         0         0         0         0         0         0         0         0
         0         0         0         0         0         0         0         0
         0         0         0         0         0         0         0         0
         0         0         0         0         0         0         0         0
         0         0         0         0         0         0         0         0
         0         0         0         0         0         0         0         0
         0         0         0         0         0         0         0         0
         0         0         0         0         0         0         0         0
         0         0         0         0         0         0         0         0
         0         0         0         0         0         0         0         0
         0         0         0         0         0         0         0         0
         0         0         0         0         0         0         0         0
         0         0         0         0         0         0         0         0
         0         0         0         0         0         0         0         0
         0         0         0         0         0         0         0         0
         0         0         0         0         0         0         0         0
         0         0         0         0         0         0         0         0
         0         0         0         0         0         0         0         0
         0         0         0         0         0         0         0         0
         0         0         0         0         0         0         0         0
         0         0         0         0         0         0         0         0
         0         0         0         0         0         0         0         0
         0         0         0         0         0         0         0         0
         0         0         0         0         0         0         0         0
         0         0         0         0         0         0         0         0
         0         0         0         0         0         0         0         0
         0         0         0         0         0         0         0         0
         0         0         0         0         0         0         0         0
         0         0         0         0         0         0         0         0
         0         0         0         0         0         0         0         0
         0         0         0         0         0         0         0         0
         0         0         0         0         0         0         0         0
         0         0         0         0         0         0         0         0
         0         0         0         0         0         0         0         0
         0         0         0         0         0         0         0         0
         0         0         0         0         0         0         0         0
         0         0         0         0         0         0         0         0
         0         0         0         0         0         0         0         0
         0         0         0         0         0         0         0         0
         0         0         0         0         0         0         0         0
         0         0         0         0         0         0         0         0
         0         0         0         0         0         0         0         0
         0         0         0         0         0         0         0         0
         0         0         0         0         0         0         0         0
         0         0         0         0         0         0         0         0
         0         0         0         0         0         0         0         0
         0         0         0         0         0         0         0         0
         0         0         0         0         0         0         0         0
         0         0         0         0         0         0         0         0
         0         0         0         0         0         0         0         0
         0         0         0         0         0         0         0         0
         0         0         0         0         0         0         0         0
         0         0         0         0         0         0         0         0
         0         0         0         0         0         0         0         0
         0         0         0         0         0         0         0         0
         0         0         0         0         0         0         0         0
         0         0         0         0         0         0         0         0
         0         0         0         0         0         0         0         0
         0         0         0         0         0         0         0         0
         0         0         0         0         0         0         0         0
         0         0         0         0         0         0         0         0
         0         0         0         0         0         0         0         0
         0         0         0         0         0         0         0         0
         0         0         0         0         0         0         0         0
         0         0         0         0         0         0         0         0
         0         0         0         0         0         0         0         0
         0         0         0         0         0         0         0         0
         0         0         0         0         0         0         0         0
         0         0         0         0         0         0         0         0
         0         0         0         0         0         0         0         0
         0         0         0         0         0         0         0         0
         0         0         0         0         0         0         0         0
         0         0         0         0         0         0         0         0
         0         0         0         0         0         0         0         0
         0         0         0         0         0         0         0         0
         0         0         0         0         0         0         0         0
         0         0         0         0         0         0         0         0
         0         0         0         0         0         0         0         0
         0         0         0         0         0         0         0         0
         0         0         0         0         0         0         0         0
         0         0         0         0         0         0         0         0
         0         0         0         0         0         0         0         0
         0         0         0         0         0         0         0         0
         0         0         0         0         0         0         0         0
         0         0         0         0         0         0         0         0
         0         0         0         0         0         0         0         0
         0         0         0         0         0         0         0         0
         0         0         0         0         0         0         0         0
         0         0         0         0         0         0         0         0
         0         0         0         0         0         0         0         0
         0         0         0         0         0         0         0         0
         0         0         0         0         0         0         0         0
         0         0         0         0         0         0         0         0
         0         0         0         0         0         0         0         0
         0         0         0         0         0         0         0         0
         0         0         0         0         0         0         0         0
         0         0         0         0         0         0         0         0
         0         0         0         0         0         0         0         0
         0         0         0         0         0         0         0         0
         0         0         0         0         0         0         0         0
         0         0         0         0         0         0         0         0
         0         0         0         0         0         0         0         0
         0         0         0         0         0         0         0         0
         0         0         0         0         0         0         0         0
         0         0         0         0         0         0         0         0
         0         0         0         0         0         0         0         0
         0         0         0         0         0         0         0         0
         0         0         0         0         0         0         0         0
         0         0         0         0         0         0         0         0
         0         0         0         0         0         0         0         0
         0         0         0         0         0         0         0         0
         0         0         0         0         0         0         0         0
         0         0         0         0         0         0         0         0
         0         0         0         0         0         0         0         0
         0         0         0         0         0         0         0         0
         0         0         0         0         0         0         0         0
         0         0         0         0         0         0         0         0
         0         0         0         0         0         0         0         0
         0         0         0         0         0         0         0         0
         0         0         0         0         0         0         0         0
         0         0         0         0         0         0         0         0
         0         0         0         0         0         0         0         0
         0         0         0         0         0         0         0         0
         0         0         0         0         0         0         0         0
         0         0         0         0         0         0         0         0
         0         0         0         0         0         0         0         0
         0         0         0         0         0         0         0         0
         0         0         0         0         0         0         0         0
         0         0         0         0         0         0         0         0
         0         0         0         0         0         0         0         0
         0         0         0         0         0         0         0         0
         0         0         0         0         0         0         0         0
         0         0         0         0         0         0         0         0
         0         0         0         0         0         0         0         0
         0         0         0         0         0         0         0         0
         0         0         0         0         0         0         0         0
         0         0         0         0         0         0         0         0
         0         0         0         0         0         0         0         0
         0         0         0         0         0         0         0         0
         0         0         0         0         0         0         0         0
         0         0         0         0         0         0         0         0
         0         0         0         0         0         0         0         0
         0         0         0         0         0         0         0         0
         0         0         0         0         0         0         0         0
         0         0         0         0         0         0         0         0
         0         0         0         0         0         0         0         0
         0         0         0         0         0         0         0         0
         0         0         0         0         0         0         0         0
         0         0         0         0         0         0         0         0
         0         0         0         0         0         0         0         0
         0         0         0         0         0         0         0         0
         0         0         0         0         0         0         0         0
         0         0         0         0         0         0         0         0
         0         0         0         0         0         0         0         0
         0         0         0         0         0         0         0         0
         0         0         0         0         0         0         0         0
         0         0         0         0         0         0         0         0
         0         0         0         0         0         0         0         0
         0         0         0         0         0         0         0         0
         0         0         0         0         0         0         0         0
         0         0         0         0         0         0         0         0
         0         0         0         0         0         0         0         0
         0         0         0         0         0         0         0         0
         0         0         0         0         0         0         0         0
         0         0         0         0         0         0         0         0
         0         0         0         0         0         0         0         0
         0         0         0         0         0         0         0         0
         0         0         0         0         0         0         0         0
         0         0         0         0         0         0         0         0
         0         0         0         0         0         0         0         0
         0         0         0         0         0         0         0         0
         0         0         0         0         0         0         0         0
         0         0         0         0         0         0         0         0
         0         0         0         0         0         0         0         0
         0         0         0         0         0         0         0         0
         0         0         0         0         0         0         0         0
         0         0         0         0         0         0         0         0
         0         0         0         0         0         0         0         0
         0         0         0         0         0         0         0         0
         0         0         0         0         0         0         0         0
         0         0         0         0         0         0         0         0
         0         0         0         0         0         0         0         0
         0         0         0         0         0         0         0         0
         0         0         0         0         0         0         0         0
         0         0         0         0         0         0         0         0
         0         0         0         0         0         0         0         0
         0         0         0         0         0         0         0         0
         0         0         0         0         0         0         0         0
         0         0         0         0         0         0         0         0
         0         0         0         0         0         0         0         0
         0         0         0         0         0         0         0         0
         0         0         0         0         0         0         0         0
         0         0         0         0         0         0         0         0
         0         0         0         0         0         0         0         0
         0         0         0         0         0         0         0         0
         0         0         0         0         0         0         0         0
         0         0         0         0         0         0         0         0
         0         0         0         0         0         0         0         0
         0         0         0         0         0         0         0         0
         0         0         0         0         0         0         0         0
         0         0         0         0         0         0         0         0
         0         0         0         0         0         0         0         0
         0         0         0         0         0         0         0         0
         0         0         0         0         0         0         0         0
         0         0         0         0         0         0         0         0
         0         0         0         0         0         0         0         0
         0         0         0         0         0         0         0         0
         0         0         0         0         0         0         0         0
         0         0         0         0         0         0         0         0
         0         0         0         0         0         0         0         0
         0         0         0         0         0         0         0         0
         0         0         0         0         0         0         0         0
         0         0         0         0         0         0         0         0
         0         0         0         0         0         0         0         0
         0         0         0         0         0         0         0         0
         0         0         0         0         0         0         0         0
         0         0         0         0         0         0         0         0
         0         0         0         0         0         0         0         0
         0         0         0         0         0         0         0         0
         0         0         0         0         0         0         0         0
         0         0         0         0         0         0         0         0
         0         0         0         0         0         0         0         0
         0         0         0         0         0         0         0         0
         0         0         0         0         0         0         0         0
         0         0         0         0         0         0         0         0
         0         0         0         0         0         0         0         0
         0         0         0         0         0         0         0         0
         0         0         0         0         0         0         0         0
         0         0         0         0         0         0         0         0
         0         0         0         0         0         0         0         0
         0         0         0         0         0         0         0         0
         0         0         0         0         0         0         0         0
         0         0         0         0         0         0         0         0
         0         0         0         0         0         0         0         0
         0         0         0         0         0         0         0         0
         0         0         0         0         0         0         0         0
         0         0         0         0         0         0         0         0
         0         0         0         0         0         0         0         0
         0         0         0         0         0         0         0         0
         0         0         0         0         0         0         0         0
         0         0         0         0         0         0         0         0
         0         0         0         0         0         0         0         0
         0         0         0         0         0         0         0         0
         0         0         0         0         0         0         0         0
         0         0         0         0         0         0         0         0
         0         0         0         0         0         0         0         0
         0         0         0         0         0         0         0         0
         0         0         0         0         0         0         0         0
         0         0         0         0         0         0         0         0
         0         0         0         0         0         0         0         0
         0         0         0         0         0         0         0         0
         0         0         0         0         0         0         0         0
         0         0         0         0         0         0         0         0
         0         0         0         0         0         0         0         0
         0         0         0         0         0         0         0         0
         0         0         0         0         0         0         0         0
         0         0         0         0         0         0         0         0
         0         0         0         0         0         0         0         0
         0         0         0         0         0         0         0         0
         0         0         0         0         0         0         0         0
         0         0         0         0         0         0         0         0
         0         0         0         0         0         0         0         0
         0         0         0         0         0         0         0         0
         0         0         0         0         0         0         0         0
         0         0         0         0         0         0         0         0
         0         0         0         0         0         0         0         0
         0         0         0         0         0         0         0         0
         0         0         0         0         0         0         0         0
         0         0         0         0         0         0         0         0
         0         0         0         0         0         0         0         0
         0         0         0         0         0         0         0         0
         0         0         0         0         0         0         0         0
         0         0         0         0         0         0         0         0
         0         0         0         0         0         0         0         0
         0         0         0         0         0         0         0         0
         0         0         0         0         0         0         0         0
         0         0         0         0         0         0         0         0
         0         0         0         0         0         0         0         0
         0         0         0         0         0         0         0         0
         0         0         0         0         0         0         0         0
         0         0         0         0         0         0         0         0
         0         0         0         0         0         0         0         0
         0         0         0         0         0         0         0         0
         0         0         0         0         0         0         0         0
         0         0         0         0         0         0         0         0
         0         0         0         0         0         0         0         0
         0         0         0         0         0         0         0         0
         0         0         0         0         0         0         0         0
         0         0         0         0         0         0         0         0
         0         0         0         0         0         0         0         0
         0         0         0         0         0         0         0         0
         0         0         0         0         0         0         0         0
         0         0         0         0         0         0         0         0
         0         0         0         0         0         0         0         0
         0         0         0         0         0         0         0         0
         0         0         0         0         0         0         0         0
         0         0         0         0         0         0         0         0
         0         0         0         0         0         0         0         0
         0         0         0         0         0         0         0         0
         0         0         0         0         0         0         0         0
         0         0         0         0         0         0         0         0
         0         0         0         0         0         0         0         0
         0         0         0         0         0         0         0         0
         0         0         0         0         0         0         0         0
         0         0         0         0         0         0         0         0
         0         0         0         0         0         0         0         0
         0         0         0         0         0         0         0         0
         0         0         0         0         0         0         0         0
         0         0         0         0         0         0         0         0
         0         0         0         0         0         0         0         0
         0         0         0         0         0         0         0         0
         0         0         0         0         0         0         0         0
         0         0         0         0         0         0         0         0
         0         0         0         0         0         0         0         0
         0         0         0         0         0         0         0         0
         0         0         0         0         0         0         0         0
         0         0         0         0         0         0         0         0
         0         0         0         0         0         0         0         0
         0         0         0         0         0         0         0         0
         0         0         0         0         0         0         0         0
         0         0         0         0         0         0         0         0
         0         0         0         0         0         0         0         0
         0         0         0         0         0         0         0         0
         0         0         0         0         0         0         0         0
         0         0         0         0         0         0         0         0
         0         0         0         0         0         0         0         0
         0         0         0         0         0         0         0         0
         0         0         0         0         0         0         0         0
         0         0         0         0         0         0         0         0
         0         0         0         0         0         0         0         0
         0         0         0         0         0         0         0         0
         0         0         0         0         0         0         0         0
         0         0         0         0         0         0         0         0
         0         0         0         0         0         0         0         0
         0         0         0         0         0         0         0         0
         0         0         0         0         0         0         0         0
         0         0         0         0         0         0         0         0
         0         0         0         0         0         0         0         0
         0         0         0         0         0         0         0         0
         0         0         0         0         0         0         0         0
         0         0         0         0         0         0         0         0
         0         0         0         0         0         0         0         0
         0         0         0         0         0         0         0         0
         0         0         0         0         0         0         0         0
         0         0         0         0         0         0         0         0
         0         0         0         0         0         0         0         0
         0         0         0         0         0         0         0         0
         0         0         0         0         0         0         0         0
         0         0         0         0         0         0         0         0
         0         0         0         0         0         0         0         0
         0         0         0         0         0         0         0         0
         0         0         0         0         0         0         0         0
         0         0         0         0         0         0         0         0
         0         0         0         0         0         0         0         0
         0         0         0         0         0         0         0         0
         0         0         0         0         0         0         0         0
         0         0         0         0         0         0         0         0
         0         0         0         0         0         0         0         0
         0         0         0         0         0         0         0         0
         0         0         0         0         0         0         0         0
         0         0         0         0         0         0         0         0
         0         0         0         0         0         0         0         0
         0         0         0         0         0         0         0         0
         0         0         0         0         0         0         0         0
         0         0         0         0         0         0         0         0
         0         0         0         0         0         0         0         0
         0         0         0         0         0         0         0         0
         0         0         0         0         0         0         0         0
         0         0         0         0         0         0         0         0
         0         0         0         0         0         0         0         0
         0         0         0         0         0         0         0         0
         0         0         0         0         0         0         0         0
         0         0         0         0         0         0         0         0
         0         0         0         0         0         0         0         0
         0         0         0         0         0         0         0         0
         0         0         0         0         0         0         0         0
         0         0         0         0         0         0         0         0
         0         0         0         0         0         0         0         0
         0         0         0         0         0         0         0         0
         0         0         0         0         0         0         0         0
         0         0         0         0         0         0         0         0
         0         0         0         0         0         0         0         0
         0         0         0         0         0         0         0         0
         0         0         0         0         0         0         0         0
         0         0         0         0         0         0         0         0
         0         0         0         0         0         0         0         0
         0         0         0         0         0         0         0         0
         0         0         0         0         0         0         0         0
         0         0         0         0         0         0         0         0
         0         0         0         0         0         0         0         0
         0         0         0         0         0         0         0         0
         0         0         0         0         0         0         0         0
         0         0         0         0         0         0         0         0
         0         0         0         0         0         0         0         0
         0         0         0         0         0         0         0         0
         0         0         0         0         0         0         0         0
         0         0         0         0         0         0         0         0
         0         0         0         0         0         0         0         0
         0         0         0         0         0         0         0         0
         0         0         0         0         0         0         0         0
         0         0         0         0         0         0         0         0
         0         0         0         0         0         0         0         0
         0         0         0         0         0         0         0         0
         0         0         0         0         0         0         0         0
         0         0         0         0         0         0         0         0
         0         0         0         0         0         0         0         0
         0         0         0         0         0         0         0         0
         0         0         0         0         0         0         0         0
         0         0         0         0         0         0         0         0
         0         0         0         0         0         0         0         0
         0         0         0         0         0         0         0         0
         0         0         0         0         0         0         0         0
         0         0         0         0         0         0         0         0
         0         0         0         0         0         0         0         0
         0         0         0         0         0         0         0         0
         0         0         0         0         0         0         0         0
         0         0         0         0         0         0         0         0
         0         0         0         0         0         0         0         0
         0         0         0         0         0         0         0         0
         0         0         0         0         0         0         0         0
         0         0         0         0         0         0         0         0
         0         0         0         0         0         0         0         0
         0         0         0         0         0         0         0         0
         0         0         0         0         0         0         0         0
         0         0         0         0         0         0         0         0
         0         0         0         0         0         0         0         0
         0         0         0         0         0         0         0         0
         0         0         0         0         0         0         0         0
         0         0         0         0         0         0         0         0
         0         0         0         0         0         0         0         0
         0         0         0         0         0         0         0         0
         0         0         0         0         0         0         0         0
         0         0         0         0         0         0         0         0
         0         0         0         0         0         0         0         0

       1       0 !NGRP
         0         0         0

